TITLE = "B00046"
VARIABLES = "position", "position(2)", "Vx", "Vy"
ZONE T="Frame 0", I=102, J=78
-55.552357 103.220658 0.000000 0.000000
-53.611669 103.220658 8.022496 0.743514
-51.670981 103.220658 8.930848 1.820650
-49.730293 103.220658 8.702106 1.480828
-47.789605 103.220658 9.221770 1.745934
-45.848917 103.220658 9.456286 2.116008
-43.908229 103.220658 8.902991 0.801221
-41.967541 103.220658 7.961438 1.451151
-40.026853 103.220658 9.517501 0.601724
-38.086165 103.220658 0.000000 0.000000
-36.145477 103.220658 0.000000 0.000000
-34.204789 103.220658 0.000000 0.000000
-32.264101 103.220658 0.000000 0.000000
-30.323413 103.220658 0.000000 0.000000
-28.382725 103.220658 0.000000 0.000000
-26.442037 103.220658 0.000000 0.000000
-24.501349 103.220658 0.000000 0.000000
-22.560661 103.220658 0.000000 0.000000
-20.619973 103.220658 0.000000 0.000000
-18.679285 103.220658 0.000000 0.000000
-16.738597 103.220658 0.000000 0.000000
-14.797909 103.220658 0.000000 0.000000
-12.857221 103.220658 10.005568 0.950455
-10.916533 103.220658 9.970113 0.776512
-8.975845 103.220658 9.746223 0.633557
-7.035157 103.220658 8.874378 1.176911
-5.094469 103.220658 0.000000 0.000000
-3.153781 103.220658 10.296123 -0.020558
-1.213093 103.220658 8.751776 1.690766
0.727595 103.220658 8.822670 0.718664
2.668283 103.220658 8.823997 0.725376
4.608971 103.220658 9.846992 -0.953974
6.549659 103.220658 10.095827 1.010633
8.490347 103.220658 9.366258 1.327639
10.431035 103.220658 9.675696 2.016713
12.371723 103.220658 9.995170 1.174321
14.312411 103.220658 9.673019 0.685637
16.253099 103.220658 7.888916 0.693194
18.193787 103.220658 11.521024 0.193516
20.134475 103.220658 10.716608 0.836050
22.075163 103.220658 10.499943 1.025493
24.015851 103.220658 10.467866 0.583477
25.956539 103.220658 10.403579 -1.651776
27.897227 103.220658 0.000000 0.000000
29.837915 103.220658 10.508703 1.345995
31.778603 103.220658 10.373306 -0.422372
33.719291 103.220658 10.137723 0.208975
35.659979 103.220658 10.766308 0.801112
37.600667 103.220658 12.122430 0.720517
39.541355 103.220658 11.834257 1.092171
41.482043 103.220658 9.508263 1.539583
43.422731 103.220658 9.507251 2.383573
45.363419 103.220658 12.682921 0.014728
47.304107 103.220658 10.745613 -0.455348
49.244796 103.220658 10.028070 0.102905
51.185484 103.220658 10.437893 -0.097145
53.126172 103.220658 9.911480 2.082788
55.066860 103.220658 10.539575 2.763520
57.007548 103.220658 0.000000 0.000000
58.948236 103.220658 0.000000 0.000000
60.888924 103.220658 0.000000 0.000000
62.829612 103.220658 0.000000 0.000000
64.770300 103.220658 0.000000 0.000000
66.710988 103.220658 9.989944 -1.293223
68.651676 103.220658 11.841410 1.170330
70.592364 103.220658 10.575322 -0.511412
72.533052 103.220658 10.536009 0.235842
74.473740 103.220658 10.539689 -0.168736
76.414428 103.220658 10.121211 -0.128401
78.355116 103.220658 10.700488 0.050907
80.295804 103.220658 10.707188 0.431282
82.236492 103.220658 10.662282 0.065158
84.177180 103.220658 10.186957 0.537454
86.117868 103.220658 9.395510 0.252024
88.058556 103.220658 10.002363 -0.361123
89.999244 103.220658 10.469707 -0.136762
91.939932 103.220658 11.410467 -0.638573
93.880620 103.220658 9.344872 -1.420981
95.821308 103.220658 10.631975 -0.249344
97.761996 103.220658 9.955634 -0.550941
99.702684 103.220658 9.981137 0.119986
101.643372 103.220658 10.235013 -0.118159
103.584060 103.220658 9.245056 -0.675454
105.524748 103.220658 9.378362 -0.172174
107.465436 103.220658 10.228097 0.808796
109.406124 103.220658 10.524315 -0.090005
111.346812 103.220658 9.865245 -0.237158
113.287500 103.220658 10.306900 -0.430974
115.228188 103.220658 10.409498 -0.404342
117.168876 103.220658 10.253324 -0.189013
119.109564 103.220658 9.247413 -0.052738
121.050252 103.220658 9.026297 0.958851
122.990940 103.220658 10.463113 -0.201330
124.931628 103.220658 10.137754 -0.779916
126.872316 103.220658 9.616009 -0.172067
128.813004 103.220658 9.296560 0.385173
130.753692 103.220658 8.978889 0.552928
132.694380 103.220658 10.080664 0.250029
134.635068 103.220658 10.006999 0.642816
136.575756 103.220658 9.094390 0.094489
138.516444 103.220658 9.230601 0.159564
140.457132 103.220658 0.000000 0.000000
-55.552357 101.279970 0.000000 0.000000
-53.611669 101.279970 8.175272 0.322652
-51.670981 101.279970 8.071757 0.490353
-49.730293 101.279970 8.735911 0.750686
-47.789605 101.279970 9.326673 1.865011
-45.848917 101.279970 9.198972 2.160272
-43.908229 101.279970 8.885128 0.989172
-41.967541 101.279970 8.606822 0.904228
-40.026853 101.279970 9.158510 0.938314
-38.086165 101.279970 0.000000 0.000000
-36.145477 101.279970 0.000000 0.000000
-34.204789 101.279970 0.000000 0.000000
-32.264101 101.279970 0.000000 0.000000
-30.323413 101.279970 0.000000 0.000000
-28.382725 101.279970 0.000000 0.000000
-26.442037 101.279970 0.000000 0.000000
-24.501349 101.279970 0.000000 0.000000
-22.560661 101.279970 0.000000 0.000000
-20.619973 101.279970 0.000000 0.000000
-18.679285 101.279970 0.000000 0.000000
-16.738597 101.279970 0.000000 0.000000
-14.797909 101.279970 0.000000 0.000000
-12.857221 101.279970 10.077551 0.783277
-10.916533 101.279970 9.952984 0.866202
-8.975845 101.279970 9.724181 0.889269
-7.035157 101.279970 8.962361 0.973454
-5.094469 101.279970 9.982819 0.424104
-3.153781 101.279970 9.525564 0.031365
-1.213093 101.279970 10.137868 -0.450988
0.727595 101.279970 9.351257 0.973995
2.668283 101.279970 9.230194 1.369977
4.608971 101.279970 0.000000 0.000000
6.549659 101.279970 9.541422 1.642512
8.490347 101.279970 9.173625 1.186581
10.431035 101.279970 10.730045 -0.365661
12.371723 101.279970 9.945433 2.082560
14.312411 101.279970 9.909808 1.485180
16.253099 101.279970 12.316349 2.424082
18.193787 101.279970 11.122645 0.404788
20.134475 101.279970 10.705439 0.912932
22.075163 101.279970 10.056193 2.164686
24.015851 101.279970 11.099916 0.678807
25.956539 101.279970 9.980388 2.342869
27.897227 101.279970 11.537480 0.734370
29.837915 101.279970 10.510734 0.410348
31.778603 101.279970 10.386879 0.345304
33.719291 101.279970 0.000000 0.000000
35.659979 101.279970 10.879903 -0.512047
37.600667 101.279970 11.571383 -0.442325
39.541355 101.279970 9.268669 1.266450
41.482043 101.279970 8.974459 2.370161
43.422731 101.279970 11.887455 -0.414116
45.363419 101.279970 11.746572 0.682440
47.304107 101.279970 10.471984 0.186888
49.244796 101.279970 10.105174 0.589825
51.185484 101.279970 9.745064 1.211662
53.126172 101.279970 9.093310 2.196978
55.066860 101.279970 9.404263 2.315784
57.007548 101.279970 0.000000 0.000000
58.948236 101.279970 0.000000 0.000000
60.888924 101.279970 0.000000 0.000000
62.829612 101.279970 0.000000 0.000000
64.770300 101.279970 0.000000 0.000000
66.710988 101.279970 10.450534 -1.423228
68.651676 101.279970 10.270529 -1.028091
70.592364 101.279970 10.235553 0.252411
72.533052 101.279970 10.497396 0.044710
74.473740 101.279970 8.202173 0.744555
76.414428 101.279970 9.683475 0.285817
78.355116 101.279970 10.648450 0.320630
80.295804 101.279970 10.891603 0.525985
82.236492 101.279970 12.096168 1.012883
84.177180 101.279970 10.100272 -1.192190
86.117868 101.279970 9.650674 -0.300099
88.058556 101.279970 10.556611 -0.740815
89.999244 101.279970 11.159504 -0.697389
91.939932 101.279970 11.047060 -0.548773
93.880620 101.279970 9.756832 -0.773019
95.821308 101.279970 10.610786 -0.246290
97.761996 101.279970 9.449673 -0.998190
99.702684 101.279970 10.244094 0.051868
101.643372 101.279970 10.426723 -0.156957
103.584060 101.279970 10.369253 -0.106059
105.524748 101.279970 9.441091 -0.294656
107.465436 101.279970 9.955702 0.485191
109.406124 101.279970 10.617955 0.266132
111.346812 101.279970 10.124885 0.124126
113.287500 101.279970 10.554727 -0.261611
115.228188 101.279970 10.053180 -0.504478
117.168876 101.279970 9.951050 -0.535429
119.109564 101.279970 9.210086 0.160469
121.050252 101.279970 9.823599 0.511717
122.990940 101.279970 10.559075 -0.584572
124.931628 101.279970 9.779726 -0.466509
126.872316 101.279970 9.367387 0.016637
128.813004 101.279970 9.422846 0.202197
130.753692 101.279970 9.081626 0.348233
132.694380 101.279970 9.578478 -0.092778
134.635068 101.279970 10.036054 0.631076
136.575756 101.279970 9.807648 0.029616
138.516444 101.279970 9.215336 0.114588
140.457132 101.279970 0.000000 0.000000
-55.552357 99.339282 0.000000 0.000000
-53.611669 99.339282 8.907557 0.252179
-51.670981 99.339282 0.000000 0.000000
-49.730293 99.339282 9.321133 1.632776
-47.789605 99.339282 9.509536 1.739265
-45.848917 99.339282 9.488098 1.259565
-43.908229 99.339282 9.015333 0.494729
-41.967541 99.339282 8.887685 0.136659
-40.026853 99.339282 9.603081 0.550082
-38.086165 99.339282 0.000000 0.000000
-36.145477 99.339282 0.000000 0.000000
-34.204789 99.339282 0.000000 0.000000
-32.264101 99.339282 0.000000 0.000000
-30.323413 99.339282 0.000000 0.000000
-28.382725 99.339282 0.000000 0.000000
-26.442037 99.339282 0.000000 0.000000
-24.501349 99.339282 0.000000 0.000000
-22.560661 99.339282 0.000000 0.000000
-20.619973 99.339282 0.000000 0.000000
-18.679285 99.339282 0.000000 0.000000
-16.738597 99.339282 0.000000 0.000000
-14.797909 99.339282 0.000000 0.000000
-12.857221 99.339282 10.098258 0.785613
-10.916533 99.339282 10.005229 1.255344
-8.975845 99.339282 9.765003 1.113097
-7.035157 99.339282 9.147988 1.029309
-5.094469 99.339282 9.038224 0.454553
-3.153781 99.339282 10.001092 0.984930
-1.213093 99.339282 9.241777 -0.503592
0.727595 99.339282 9.979817 0.852224
2.668283 99.339282 10.663525 0.533657
4.608971 99.339282 9.580304 1.006472
6.549659 99.339282 9.172425 1.600987
8.490347 99.339282 8.929081 0.606297
10.431035 99.339282 11.328416 0.294770
12.371723 99.339282 12.284303 1.306891
14.312411 99.339282 9.947148 2.360014
16.253099 99.339282 0.000000 0.000000
18.193787 99.339282 10.784331 0.702593
20.134475 99.339282 10.154300 0.518414
22.075163 99.339282 9.390472 0.113228
24.015851 99.339282 10.636812 0.999650
25.956539 99.339282 11.822729 0.554350
27.897227 99.339282 11.275805 0.331351
29.837915 99.339282 8.751363 0.682046
31.778603 99.339282 10.347037 0.878000
33.719291 99.339282 0.000000 0.000000
35.659979 99.339282 11.621510 1.793199
37.600667 99.339282 10.541481 1.750311
39.541355 99.339282 0.000000 0.000000
41.482043 99.339282 9.495649 1.277589
43.422731 99.339282 10.980622 -0.313467
45.363419 99.339282 11.618443 -0.007738
47.304107 99.339282 10.585283 -0.145816
49.244796 99.339282 9.967134 0.868902
51.185484 99.339282 9.081604 1.587358
53.126172 99.339282 8.584850 1.857262
55.066860 99.339282 9.198120 0.010323
57.007548 99.339282 0.000000 0.000000
58.948236 99.339282 0.000000 0.000000
60.888924 99.339282 0.000000 0.000000
62.829612 99.339282 0.000000 0.000000
64.770300 99.339282 0.000000 0.000000
66.710988 99.339282 10.971613 -0.440550
68.651676 99.339282 10.027500 -0.075160
70.592364 99.339282 10.738836 -0.007443
72.533052 99.339282 10.643595 -0.263805
74.473740 99.339282 10.055354 0.123421
76.414428 99.339282 10.310855 0.263709
78.355116 99.339282 10.912576 -0.090112
80.295804 99.339282 10.319516 1.593894
82.236492 99.339282 10.921031 -0.971446
84.177180 99.339282 9.949440 -1.112818
86.117868 99.339282 10.238853 -0.311675
88.058556 99.339282 11.259776 -0.983596
89.999244 99.339282 11.488832 -0.520246
91.939932 99.339282 10.867753 -0.094003
93.880620 99.339282 9.827557 -0.762822
95.821308 99.339282 10.715778 -0.535896
97.761996 99.339282 10.619739 -0.441850
99.702684 99.339282 10.235950 0.071585
101.643372 99.339282 8.909706 -0.534187
103.584060 99.339282 10.419653 -0.329375
105.524748 99.339282 9.796556 -0.300803
107.465436 99.339282 10.209317 0.180766
109.406124 99.339282 10.343826 -0.053594
111.346812 99.339282 9.999997 0.300719
113.287500 99.339282 10.882414 -0.337290
115.228188 99.339282 9.939118 -0.435658
117.168876 99.339282 9.273142 -0.677609
119.109564 99.339282 9.455398 -0.247138
121.050252 99.339282 10.049623 0.129984
122.990940 99.339282 10.344089 -0.831958
124.931628 99.339282 9.647213 -0.085586
126.872316 99.339282 9.363182 -0.243170
128.813004 99.339282 9.939060 -0.519494
130.753692 99.339282 9.505625 0.028454
132.694380 99.339282 9.468886 0.051515
134.635068 99.339282 9.932034 0.118988
136.575756 99.339282 10.190248 -0.137432
138.516444 99.339282 10.212131 -0.147336
140.457132 99.339282 0.000000 0.000000
-55.552357 97.398594 0.000000 0.000000
-53.611669 97.398594 0.000000 0.000000
-51.670981 97.398594 0.000000 0.000000
-49.730293 97.398594 9.837427 1.823166
-47.789605 97.398594 8.125930 -0.248147
-45.848917 97.398594 0.000000 0.000000
-43.908229 97.398594 9.403101 -0.613936
-41.967541 97.398594 9.424993 0.074975
-40.026853 97.398594 9.573071 0.074860
-38.086165 97.398594 0.000000 0.000000
-36.145477 97.398594 0.000000 0.000000
-34.204789 97.398594 0.000000 0.000000
-32.264101 97.398594 0.000000 0.000000
-30.323413 97.398594 0.000000 0.000000
-28.382725 97.398594 0.000000 0.000000
-26.442037 97.398594 0.000000 0.000000
-24.501349 97.398594 0.000000 0.000000
-22.560661 97.398594 0.000000 0.000000
-20.619973 97.398594 0.000000 0.000000
-18.679285 97.398594 0.000000 0.000000
-16.738597 97.398594 0.000000 0.000000
-14.797909 97.398594 0.000000 0.000000
-12.857221 97.398594 10.071946 0.552579
-10.916533 97.398594 9.742053 1.223652
-8.975845 97.398594 9.684672 0.934891
-7.035157 97.398594 9.475562 1.008903
-5.094469 97.398594 9.138473 0.822456
-3.153781 97.398594 9.093915 0.591154
-1.213093 97.398594 10.264119 0.913843
0.727595 97.398594 11.933795 1.106693
2.668283 97.398594 10.531206 1.202327
4.608971 97.398594 10.450564 1.070998
6.549659 97.398594 10.920734 -0.152881
8.490347 97.398594 8.858128 0.816062
10.431035 97.398594 8.628233 -0.065143
12.371723 97.398594 11.940983 1.200686
14.312411 97.398594 10.723509 1.636488
16.253099 97.398594 0.000000 0.000000
18.193787 97.398594 10.487700 1.878359
20.134475 97.398594 9.750394 0.662770
22.075163 97.398594 9.500473 0.490874
24.015851 97.398594 9.869779 0.368180
25.956539 97.398594 11.726837 -0.423479
27.897227 97.398594 10.969179 -0.487248
29.837915 97.398594 9.194455 0.916858
31.778603 97.398594 9.197155 0.888907
33.719291 97.398594 10.660215 -0.219899
35.659979 97.398594 9.536212 -0.726734
37.600667 97.398594 9.592836 -0.167525
39.541355 97.398594 0.000000 0.000000
41.482043 97.398594 9.027789 0.804314
43.422731 97.398594 9.511264 -0.099705
45.363419 97.398594 0.000000 0.000000
47.304107 97.398594 0.000000 0.000000
49.244796 97.398594 9.803465 0.992512
51.185484 97.398594 9.541919 1.818059
53.126172 97.398594 0.000000 0.000000
55.066860 97.398594 9.183070 -0.695810
57.007548 97.398594 10.197862 -0.530705
58.948236 97.398594 0.000000 0.000000
60.888924 97.398594 0.000000 0.000000
62.829612 97.398594 0.000000 0.000000
64.770300 97.398594 0.000000 0.000000
66.710988 97.398594 11.245810 -0.440243
68.651676 97.398594 10.404366 0.271485
70.592364 97.398594 11.703274 0.139102
72.533052 97.398594 10.486034 -0.361315
74.473740 97.398594 9.981375 -0.403710
76.414428 97.398594 10.405498 -0.392628
78.355116 97.398594 10.658589 -0.062391
80.295804 97.398594 10.614112 -0.749076
82.236492 97.398594 10.890897 -0.483701
84.177180 97.398594 10.319294 -0.895979
86.117868 97.398594 10.390075 -0.438684
88.058556 97.398594 10.301298 -1.149795
89.999244 97.398594 10.989969 -0.477963
91.939932 97.398594 10.111284 -1.126413
93.880620 97.398594 10.408135 -0.620960
95.821308 97.398594 10.663093 -0.848154
97.761996 97.398594 10.510427 -0.493581
99.702684 97.398594 10.504043 -0.402677
101.643372 97.398594 9.205206 -0.511177
103.584060 97.398594 10.189674 -0.362273
105.524748 97.398594 9.991255 -0.182245
107.465436 97.398594 10.545522 0.138672
109.406124 97.398594 10.403746 0.280346
111.346812 97.398594 9.863464 0.063323
113.287500 97.398594 10.118237 -0.511887
115.228188 97.398594 10.064679 -0.502533
117.168876 97.398594 10.052726 -0.676938
119.109564 97.398594 10.037763 -0.514594
121.050252 97.398594 10.072348 -0.328514
122.990940 97.398594 10.370922 -0.400234
124.931628 97.398594 10.216095 0.107373
126.872316 97.398594 9.709729 0.351072
128.813004 97.398594 10.142520 -0.318046
130.753692 97.398594 9.809854 -0.142951
132.694380 97.398594 9.400420 0.126506
134.635068 97.398594 9.572944 -0.148859
136.575756 97.398594 9.780324 0.049029
138.516444 97.398594 9.765466 -0.157810
140.457132 97.398594 0.000000 0.000000
-55.552357 95.457906 0.000000 0.000000
-53.611669 95.457906 0.000000 0.000000
-51.670981 95.457906 0.000000 0.000000
-49.730293 95.457906 9.147323 1.047916
-47.789605 95.457906 9.932119 1.441349
-45.848917 95.457906 9.245938 1.725606
-43.908229 95.457906 9.786521 0.506060
-41.967541 95.457906 9.969293 -0.657119
-40.026853 95.457906 9.398249 0.396134
-38.086165 95.457906 0.000000 0.000000
-36.145477 95.457906 0.000000 0.000000
-34.204789 95.457906 0.000000 0.000000
-32.264101 95.457906 0.000000 0.000000
-30.323413 95.457906 0.000000 0.000000
-28.382725 95.457906 0.000000 0.000000
-26.442037 95.457906 0.000000 0.000000
-24.501349 95.457906 0.000000 0.000000
-22.560661 95.457906 0.000000 0.000000
-20.619973 95.457906 0.000000 0.000000
-18.679285 95.457906 0.000000 0.000000
-16.738597 95.457906 0.000000 0.000000
-14.797909 95.457906 9.468523 0.802136
-12.857221 95.457906 9.988356 0.637771
-10.916533 95.457906 9.196374 0.787493
-8.975845 95.457906 9.642118 1.000178
-7.035157 95.457906 10.223380 1.129730
-5.094469 95.457906 10.064435 1.315732
-3.153781 95.457906 9.270754 -0.447186
-1.213093 95.457906 9.716408 0.782510
0.727595 95.457906 10.599991 1.107568
2.668283 95.457906 10.126449 0.812698
4.608971 95.457906 10.456135 1.401562
6.549659 95.457906 11.312299 -0.341553
8.490347 95.457906 8.559781 -0.003612
10.431035 95.457906 8.435723 0.129560
12.371723 95.457906 9.558847 2.972478
14.312411 95.457906 11.633187 0.600677
16.253099 95.457906 9.918201 1.730318
18.193787 95.457906 10.208097 1.863507
20.134475 95.457906 10.386937 1.217895
22.075163 95.457906 10.297760 0.976241
24.015851 95.457906 9.835805 0.585584
25.956539 95.457906 0.000000 0.000000
27.897227 95.457906 10.255035 -0.460259
29.837915 95.457906 9.261186 0.919857
31.778603 95.457906 8.808425 1.663738
33.719291 95.457906 11.604236 -0.252603
35.659979 95.457906 10.745064 0.662536
37.600667 95.457906 9.460608 0.642680
39.541355 95.457906 10.627250 1.072247
41.482043 95.457906 9.564742 0.616655
43.422731 95.457906 11.609022 3.376841
45.363419 95.457906 10.783384 1.936142
47.304107 95.457906 11.140855 -0.034935
49.244796 95.457906 10.922715 0.720931
51.185484 95.457906 10.984941 -0.181459
53.126172 95.457906 11.378341 -0.021724
55.066860 95.457906 10.491078 -0.861930
57.007548 95.457906 10.946834 0.491101
58.948236 95.457906 0.000000 0.000000
60.888924 95.457906 0.000000 0.000000
62.829612 95.457906 0.000000 0.000000
64.770300 95.457906 0.000000 0.000000
66.710988 95.457906 10.788647 0.097484
68.651676 95.457906 10.931697 -0.257614
70.592364 95.457906 10.362439 0.724638
72.533052 95.457906 10.307347 -0.621038
74.473740 95.457906 10.179789 0.247109
76.414428 95.457906 10.342669 -0.051700
78.355116 95.457906 10.298349 0.204527
80.295804 95.457906 11.085464 -0.523616
82.236492 95.457906 12.571942 1.072084
84.177180 95.457906 10.312964 0.260040
86.117868 95.457906 10.489063 -0.497338
88.058556 95.457906 10.187692 -0.821182
89.999244 95.457906 10.739906 -0.391601
91.939932 95.457906 11.273078 -0.310340
93.880620 95.457906 10.333678 -0.452256
95.821308 95.457906 10.395710 -0.698383
97.761996 95.457906 10.410110 -0.272597
99.702684 95.457906 10.365693 -0.565226
101.643372 95.457906 10.519482 -0.300328
103.584060 95.457906 10.344937 -0.164245
105.524748 95.457906 10.342938 -0.136907
107.465436 95.457906 10.539392 -0.384861
109.406124 95.457906 9.927511 -0.141368
111.346812 95.457906 9.515255 -0.326819
113.287500 95.457906 10.134870 -0.003703
115.228188 95.457906 10.292566 -0.700307
117.168876 95.457906 10.353444 -0.617638
119.109564 95.457906 10.226200 -0.306135
121.050252 95.457906 9.928186 -0.509510
122.990940 95.457906 10.255229 -0.196424
124.931628 95.457906 10.112275 -0.160333
126.872316 95.457906 9.148812 0.413030
128.813004 95.457906 9.480645 0.339867
130.753692 95.457906 9.884801 -0.069528
132.694380 95.457906 9.290631 0.137364
134.635068 95.457906 9.306542 0.164677
136.575756 95.457906 9.844695 -0.039638
138.516444 95.457906 9.904395 -0.005116
140.457132 95.457906 0.000000 0.000000
-55.552357 93.517218 0.000000 0.000000
-53.611669 93.517218 10.409795 -4.024940
-51.670981 93.517218 0.000000 0.000000
-49.730293 93.517218 10.502981 -0.668540
-47.789605 93.517218 9.185247 1.113404
-45.848917 93.517218 9.481747 1.043830
-43.908229 93.517218 8.663256 1.597631
-41.967541 93.517218 9.109857 0.396029
-40.026853 93.517218 9.379806 0.633830
-38.086165 93.517218 0.000000 0.000000
-36.145477 93.517218 0.000000 0.000000
-34.204789 93.517218 0.000000 0.000000
-32.264101 93.517218 0.000000 0.000000
-30.323413 93.517218 0.000000 0.000000
-28.382725 93.517218 0.000000 0.000000
-26.442037 93.517218 0.000000 0.000000
-24.501349 93.517218 0.000000 0.000000
-22.560661 93.517218 0.000000 0.000000
-20.619973 93.517218 0.000000 0.000000
-18.679285 93.517218 0.000000 0.000000
-16.738597 93.517218 0.000000 0.000000
-14.797909 93.517218 9.459846 1.108120
-12.857221 93.517218 9.963718 0.689891
-10.916533 93.517218 9.281606 0.542414
-8.975845 93.517218 9.070703 1.215934
-7.035157 93.517218 9.923026 1.093753
-5.094469 93.517218 10.613134 1.321349
-3.153781 93.517218 9.522779 -0.370689
-1.213093 93.517218 10.435080 0.163184
0.727595 93.517218 10.369728 1.151479
2.668283 93.517218 9.217846 1.556644
4.608971 93.517218 9.547437 1.529195
6.549659 93.517218 10.114607 1.398687
8.490347 93.517218 0.000000 0.000000
10.431035 93.517218 0.000000 0.000000
12.371723 93.517218 9.956359 2.702894
14.312411 93.517218 9.597995 3.151548
16.253099 93.517218 0.000000 0.000000
18.193787 93.517218 10.001367 1.443109
20.134475 93.517218 10.285363 0.960384
22.075163 93.517218 11.331470 1.145361
24.015851 93.517218 9.098683 0.329312
25.956539 93.517218 10.355190 2.481514
27.897227 93.517218 9.051445 1.146003
29.837915 93.517218 9.144010 0.765176
31.778603 93.517218 10.185326 1.277877
33.719291 93.517218 11.369370 -0.563393
35.659979 93.517218 10.187170 0.360038
37.600667 93.517218 11.035896 -0.249134
39.541355 93.517218 9.240411 0.830433
41.482043 93.517218 10.538408 0.986198
43.422731 93.517218 12.420231 1.619074
45.363419 93.517218 10.358803 1.801513
47.304107 93.517218 9.178465 1.127265
49.244796 93.517218 9.686496 1.289019
51.185484 93.517218 10.920370 -0.250639
53.126172 93.517218 10.717836 1.935803
55.066860 93.517218 10.201742 0.287396
57.007548 93.517218 9.907054 0.396992
58.948236 93.517218 0.000000 0.000000
60.888924 93.517218 0.000000 0.000000
62.829612 93.517218 0.000000 0.000000
64.770300 93.517218 0.000000 0.000000
66.710988 93.517218 11.197489 -0.524990
68.651676 93.517218 10.537943 -0.148508
70.592364 93.517218 10.209620 0.122284
72.533052 93.517218 10.449075 -0.026553
74.473740 93.517218 11.411143 -0.018434
76.414428 93.517218 11.063581 -0.420594
78.355116 93.517218 10.241290 0.522008
80.295804 93.517218 11.443507 -0.047841
82.236492 93.517218 10.607058 -0.210841
84.177180 93.517218 10.527267 0.051890
86.117868 93.517218 12.614004 0.807955
88.058556 93.517218 11.048719 0.058550
89.999244 93.517218 10.712981 -0.091652
91.939932 93.517218 11.031655 -0.153106
93.880620 93.517218 9.934153 -0.092740
95.821308 93.517218 10.493681 -0.471082
97.761996 93.517218 10.771969 -0.264019
99.702684 93.517218 10.035667 -0.390118
101.643372 93.517218 10.704286 0.049649
103.584060 93.517218 10.598790 -0.249870
105.524748 93.517218 10.111466 0.056748
107.465436 93.517218 10.062967 -0.500819
109.406124 93.517218 9.975842 -0.524704
111.346812 93.517218 10.187133 -0.531454
113.287500 93.517218 10.571571 -0.045791
115.228188 93.517218 10.401087 -0.403272
117.168876 93.517218 10.569585 -0.278898
119.109564 93.517218 10.204179 -0.237244
121.050252 93.517218 9.792577 -0.669102
122.990940 93.517218 9.910533 -0.433525
124.931628 93.517218 9.698585 -0.202257
126.872316 93.517218 9.069839 0.286534
128.813004 93.517218 9.774920 0.178638
130.753692 93.517218 10.158730 -0.194571
132.694380 93.517218 9.416398 -0.077779
134.635068 93.517218 9.538979 -0.303852
136.575756 93.517218 9.822954 0.346129
138.516444 93.517218 10.120129 0.222034
140.457132 93.517218 0.000000 0.000000
-55.552357 91.576530 9.944178 0.068630
-53.611669 91.576530 9.148803 2.159458
-51.670981 91.576530 0.000000 0.000000
-49.730293 91.576530 11.744997 0.872181
-47.789605 91.576530 10.861691 -1.495625
-45.848917 91.576530 8.672806 1.033967
-43.908229 91.576530 8.437926 0.738068
-41.967541 91.576530 9.060480 0.297692
-40.026853 91.576530 9.317412 0.626709
-38.086165 91.576530 0.000000 0.000000
-36.145477 91.576530 0.000000 0.000000
-34.204789 91.576530 0.000000 0.000000
-32.264101 91.576530 0.000000 0.000000
-30.323413 91.576530 0.000000 0.000000
-28.382725 91.576530 0.000000 0.000000
-26.442037 91.576530 0.000000 0.000000
-24.501349 91.576530 0.000000 0.000000
-22.560661 91.576530 0.000000 0.000000
-20.619973 91.576530 0.000000 0.000000
-18.679285 91.576530 0.000000 0.000000
-16.738597 91.576530 0.000000 0.000000
-14.797909 91.576530 9.389546 1.176183
-12.857221 91.576530 9.390543 0.857370
-10.916533 91.576530 9.068760 1.967131
-8.975845 91.576530 8.935703 1.520015
-7.035157 91.576530 9.194705 1.456717
-5.094469 91.576530 9.613023 1.265173
-3.153781 91.576530 9.414101 0.865683
-1.213093 91.576530 10.110211 2.625257
0.727595 91.576530 10.934208 1.663306
2.668283 91.576530 9.341488 0.707761
4.608971 91.576530 9.068800 1.041632
6.549659 91.576530 9.028123 1.372730
8.490347 91.576530 10.451724 1.397816
10.431035 91.576530 9.423182 1.642977
12.371723 91.576530 9.337312 0.961004
14.312411 91.576530 10.084559 2.289918
16.253099 91.576530 9.055240 2.464149
18.193787 91.576530 9.516171 1.255405
20.134475 91.576530 9.854424 1.053220
22.075163 91.576530 10.174270 1.249825
24.015851 91.576530 9.510184 1.380173
25.956539 91.576530 9.517606 1.645907
27.897227 91.576530 9.220876 1.002140
29.837915 91.576530 10.381419 0.261274
31.778603 91.576530 9.752038 1.335544
33.719291 91.576530 9.845235 1.077358
35.659979 91.576530 10.360604 -0.362518
37.600667 91.576530 9.960770 -0.267415
39.541355 91.576530 9.586433 0.336780
41.482043 91.576530 10.327756 0.964718
43.422731 91.576530 12.149211 1.607597
45.363419 91.576530 10.124145 1.041282
47.304107 91.576530 9.360860 1.072522
49.244796 91.576530 10.514006 0.696441
51.185484 91.576530 10.638459 -0.254699
53.126172 91.576530 9.331753 1.516480
55.066860 91.576530 10.446996 0.439321
57.007548 91.576530 7.966025 1.103482
58.948236 91.576530 0.000000 0.000000
60.888924 91.576530 0.000000 0.000000
62.829612 91.576530 0.000000 0.000000
64.770300 91.576530 0.000000 0.000000
66.710988 91.576530 11.421819 -0.488400
68.651676 91.576530 9.662081 -0.284040
70.592364 91.576530 10.534657 -0.506319
72.533052 91.576530 10.408465 0.496100
74.473740 91.576530 10.998973 0.191141
76.414428 91.576530 10.665240 -0.322871
78.355116 91.576530 10.768294 0.286279
80.295804 91.576530 10.818059 -0.492716
82.236492 91.576530 10.113250 -0.561778
84.177180 91.576530 10.514842 -0.683791
86.117868 91.576530 10.734696 -0.569624
88.058556 91.576530 10.494570 -0.038917
89.999244 91.576530 10.710621 0.455338
91.939932 91.576530 10.915117 -0.478150
93.880620 91.576530 10.339813 -0.682983
95.821308 91.576530 10.455167 -0.308137
97.761996 91.576530 10.789406 -0.269965
99.702684 91.576530 10.292002 -0.014299
101.643372 91.576530 10.664438 0.072324
103.584060 91.576530 10.879145 -0.225714
105.524748 91.576530 9.833432 -0.090567
107.465436 91.576530 10.011796 -0.177797
109.406124 91.576530 10.305811 -0.883006
111.346812 91.576530 10.430600 -0.820084
113.287500 91.576530 10.559834 -0.092899
115.228188 91.576530 10.520194 -0.411832
117.168876 91.576530 10.609636 -0.140407
119.109564 91.576530 9.745751 -0.441409
121.050252 91.576530 9.889878 -0.558102
122.990940 91.576530 10.028036 -0.843805
124.931628 91.576530 10.106683 -0.611687
126.872316 91.576530 9.646976 -0.631565
128.813004 91.576530 10.156623 -0.539554
130.753692 91.576530 9.960070 -0.440584
132.694380 91.576530 9.714664 -0.249785
134.635068 91.576530 9.863961 -0.545819
136.575756 91.576530 9.716340 0.448767
138.516444 91.576530 9.829271 -0.302059
140.457132 91.576530 0.000000 0.000000
-55.552357 89.635842 0.000000 0.000000
-53.611669 89.635842 8.625651 1.234822
-51.670981 89.635842 9.070132 0.503719
-49.730293 89.635842 9.160367 0.527319
-47.789605 89.635842 10.624217 -0.854789
-45.848917 89.635842 8.558359 0.689605
-43.908229 89.635842 8.546375 0.874682
-41.967541 89.635842 9.050446 0.670482
-40.026853 89.635842 9.477024 0.533058
-38.086165 89.635842 0.000000 0.000000
-36.145477 89.635842 0.000000 0.000000
-34.204789 89.635842 0.000000 0.000000
-32.264101 89.635842 0.000000 0.000000
-30.323413 89.635842 0.000000 0.000000
-28.382725 89.635842 0.000000 0.000000
-26.442037 89.635842 0.000000 0.000000
-24.501349 89.635842 0.000000 0.000000
-22.560661 89.635842 0.000000 0.000000
-20.619973 89.635842 0.000000 0.000000
-18.679285 89.635842 0.000000 0.000000
-16.738597 89.635842 0.000000 0.000000
-14.797909 89.635842 9.338727 1.031530
-12.857221 89.635842 9.352133 0.890591
-10.916533 89.635842 9.022357 1.294554
-8.975845 89.635842 9.416917 0.874184
-7.035157 89.635842 9.632833 1.415099
-5.094469 89.635842 9.315496 1.004126
-3.153781 89.635842 9.300910 0.907361
-1.213093 89.635842 9.862206 2.272956
0.727595 89.635842 10.414949 1.684780
2.668283 89.635842 9.970227 0.864839
4.608971 89.635842 9.832112 0.922887
6.549659 89.635842 9.122416 1.915472
8.490347 89.635842 10.017052 1.345545
10.431035 89.635842 9.895748 1.090282
12.371723 89.635842 9.973598 0.855106
14.312411 89.635842 8.927804 2.708950
16.253099 89.635842 8.974878 2.412272
18.193787 89.635842 10.060107 0.987501
20.134475 89.635842 9.866096 1.334070
22.075163 89.635842 9.188715 1.250529
24.015851 89.635842 10.008736 0.971898
25.956539 89.635842 10.737479 1.293239
27.897227 89.635842 10.585206 0.693509
29.837915 89.635842 10.653981 0.266255