TITLE = "B00007"
VARIABLES = "position", "position(2)", "Vx", "Vy"
ZONE T="Frame 0", I=102, J=78
-55.552357 103.220658 0.000000 0.000000
-53.611669 103.220658 0.000000 0.000000
-51.670981 103.220658 0.000000 0.000000
-49.730293 103.220658 8.932289 1.068157
-47.789605 103.220658 0.000000 0.000000
-45.848917 103.220658 10.541814 0.134655
-43.908229 103.220658 8.396706 1.710570
-41.967541 103.220658 9.398511 2.136218
-40.026853 103.220658 10.493145 -0.286113
-38.086165 103.220658 0.000000 0.000000
-36.145477 103.220658 0.000000 0.000000
-34.204789 103.220658 0.000000 0.000000
-32.264101 103.220658 0.000000 0.000000
-30.323413 103.220658 0.000000 0.000000
-28.382725 103.220658 0.000000 0.000000
-26.442037 103.220658 0.000000 0.000000
-24.501349 103.220658 0.000000 0.000000
-22.560661 103.220658 0.000000 0.000000
-20.619973 103.220658 0.000000 0.000000
-18.679285 103.220658 0.000000 0.000000
-16.738597 103.220658 0.000000 0.000000
-14.797909 103.220658 0.000000 0.000000
-12.857221 103.220658 9.864708 0.653589
-10.916533 103.220658 9.249125 0.605333
-8.975845 103.220658 10.595678 0.890884
-7.035157 103.220658 12.242883 1.631753
-5.094469 103.220658 10.077283 -0.828585
-3.153781 103.220658 9.195119 0.853770
-1.213093 103.220658 10.890104 -0.037170
0.727595 103.220658 10.381472 1.251550
2.668283 103.220658 9.450827 0.878348
4.608971 103.220658 9.444963 1.752617
6.549659 103.220658 10.556744 -1.312811
8.490347 103.220658 9.012856 0.824307
10.431035 103.220658 9.118000 -0.027472
12.371723 103.220658 0.000000 0.000000
14.312411 103.220658 11.364013 1.330330
16.253099 103.220658 11.886850 2.082435
18.193787 103.220658 10.764688 -0.132467
20.134475 103.220658 10.036664 0.339698
22.075163 103.220658 9.950445 0.107114
24.015851 103.220658 10.558890 0.545341
25.956539 103.220658 9.962117 1.989635
27.897227 103.220658 10.002743 1.563499
29.837915 103.220658 10.093699 1.804743
31.778603 103.220658 10.616228 0.906298
33.719291 103.220658 10.239652 0.098135
35.659979 103.220658 9.287368 1.547726
37.600667 103.220658 11.633820 0.154652
39.541355 103.220658 10.175961 0.327496
41.482043 103.220658 10.005340 2.313709
43.422731 103.220658 10.998298 -0.491317
45.363419 103.220658 9.171990 2.182508
47.304107 103.220658 12.012373 0.504309
49.244796 103.220658 9.916274 1.086673
51.185484 103.220658 10.083248 0.841977
53.126172 103.220658 9.221113 1.403894
55.066860 103.220658 10.252620 0.887200
57.007548 103.220658 0.000000 0.000000
58.948236 103.220658 0.000000 0.000000
60.888924 103.220658 0.000000 0.000000
62.829612 103.220658 0.000000 0.000000
64.770300 103.220658 0.000000 0.000000
66.710988 103.220658 10.270813 0.534812
68.651676 103.220658 9.777474 0.393119
70.592364 103.220658 10.398224 -0.541951
72.533052 103.220658 11.804947 -0.311897
74.473740 103.220658 10.654320 -0.455708
76.414428 103.220658 10.366147 -0.722333
78.355116 103.220658 9.597470 0.855850
80.295804 103.220658 10.671026 -0.319092
82.236492 103.220658 9.712425 -0.581284
84.177180 103.220658 10.590499 0.135312
86.117868 103.220658 10.537995 -0.112343
88.058556 103.220658 10.920584 -0.400821
89.999244 103.220658 10.824351 0.066392
91.939932 103.220658 10.811152 -1.757628
93.880620 103.220658 10.408873 -0.071719
95.821308 103.220658 10.140697 0.340843
97.761996 103.220658 9.571171 -0.548335
99.702684 103.220658 10.500545 0.216571
101.643372 103.220658 10.646205 0.640285
103.584060 103.220658 10.484859 0.127923
105.524748 103.220658 10.624964 -0.368058
107.465436 103.220658 10.381907 -0.527834
109.406124 103.220658 10.593445 0.181636
111.346812 103.220658 10.387444 -0.207225
113.287500 103.220658 10.115874 -1.311001
115.228188 103.220658 10.001259 -0.975115
117.168876 103.220658 9.972411 -0.623099
119.109564 103.220658 9.793767 -0.271183
121.050252 103.220658 10.297801 -0.619980
122.990940 103.220658 10.146961 -0.554150
124.931628 103.220658 10.231811 -0.670551
126.872316 103.220658 10.179020 -0.156380
128.813004 103.220658 10.436122 -0.395122
130.753692 103.220658 10.340465 -0.317298
132.694380 103.220658 10.055249 -0.423319
134.635068 103.220658 9.918831 -0.563238
136.575756 103.220658 9.707086 0.077688
138.516444 103.220658 10.207680 -0.460580
140.457132 103.220658 0.000000 0.000000
-55.552357 101.279970 0.000000 0.000000
-53.611669 101.279970 0.000000 0.000000
-51.670981 101.279970 0.000000 0.000000
-49.730293 101.279970 9.911554 0.972143
-47.789605 101.279970 9.560430 0.626444
-45.848917 101.279970 10.314269 -0.052880
-43.908229 101.279970 9.759701 2.230863
-41.967541 101.279970 10.474026 -0.323662
-40.026853 101.279970 8.017520 0.841601
-38.086165 101.279970 0.000000 0.000000
-36.145477 101.279970 0.000000 0.000000
-34.204789 101.279970 0.000000 0.000000
-32.264101 101.279970 0.000000 0.000000
-30.323413 101.279970 0.000000 0.000000
-28.382725 101.279970 0.000000 0.000000
-26.442037 101.279970 0.000000 0.000000
-24.501349 101.279970 0.000000 0.000000
-22.560661 101.279970 0.000000 0.000000
-20.619973 101.279970 0.000000 0.000000
-18.679285 101.279970 0.000000 0.000000
-16.738597 101.279970 0.000000 0.000000
-14.797909 101.279970 0.000000 0.000000
-12.857221 101.279970 9.767998 0.455759
-10.916533 101.279970 10.024051 0.704368
-8.975845 101.279970 10.617502 1.294480
-7.035157 101.279970 10.942608 0.592788
-5.094469 101.279970 9.920256 2.556479
-3.153781 101.279970 8.413406 1.359878
-1.213093 101.279970 8.660772 0.826852
0.727595 101.279970 9.617610 0.723720
2.668283 101.279970 9.159232 0.567165
4.608971 101.279970 10.133343 0.816507
6.549659 101.279970 10.635547 -1.289768
8.490347 101.279970 9.009781 0.884217
10.431035 101.279970 9.641975 0.119669
12.371723 101.279970 8.457890 2.169372
14.312411 101.279970 10.305497 2.625785
16.253099 101.279970 10.820727 0.584877
18.193787 101.279970 9.397739 1.453034
20.134475 101.279970 10.158005 0.946590
22.075163 101.279970 0.000000 0.000000
24.015851 101.279970 9.332567 0.914102
25.956539 101.279970 0.000000 0.000000
27.897227 101.279970 9.679189 2.014133
29.837915 101.279970 11.019789 0.899449
31.778603 101.279970 10.608605 1.493513
33.719291 101.279970 9.592325 0.904245
35.659979 101.279970 12.184083 0.286876
37.600667 101.279970 11.356659 0.588920
39.541355 101.279970 10.448976 0.803085
41.482043 101.279970 9.437676 0.985279
43.422731 101.279970 10.353854 -0.087289
45.363419 101.279970 9.371193 1.860786
47.304107 101.279970 9.232338 1.174020
49.244796 101.279970 9.858946 1.200523
51.185484 101.279970 10.273414 1.079146
53.126172 101.279970 9.918433 1.635376
55.066860 101.279970 10.065764 0.901884
57.007548 101.279970 0.000000 0.000000
58.948236 101.279970 0.000000 0.000000
60.888924 101.279970 0.000000 0.000000
62.829612 101.279970 0.000000 0.000000
64.770300 101.279970 0.000000 0.000000
66.710988 101.279970 10.000315 0.158111
68.651676 101.279970 9.821171 0.383196
70.592364 101.279970 9.991169 -0.727600
72.533052 101.279970 10.402946 1.743965
74.473740 101.279970 10.902486 -0.646635
76.414428 101.279970 11.151552 -0.956098
78.355116 101.279970 10.088492 0.631478
80.295804 101.279970 9.927545 -0.493680
82.236492 101.279970 10.524950 -0.511694
84.177180 101.279970 10.115322 -0.269269
86.117868 101.279970 10.293994 -0.289446
88.058556 101.279970 10.859335 -0.452608
89.999244 101.279970 10.659444 -0.199626
91.939932 101.279970 10.585626 -0.488359
93.880620 101.279970 10.823683 -0.171312
95.821308 101.279970 10.402176 0.179005
97.761996 101.279970 9.595854 -0.227273
99.702684 101.279970 10.288898 -0.380595
101.643372 101.279970 9.924578 0.673832
103.584060 101.279970 10.098894 -1.107924
105.524748 101.279970 10.054188 -0.830751
107.465436 101.279970 10.391559 0.625510
109.406124 101.279970 10.163853 0.176751
111.346812 101.279970 10.133577 -0.399294
113.287500 101.279970 10.328468 -1.177765
115.228188 101.279970 10.193302 -0.981719
117.168876 101.279970 10.217992 -0.499115
119.109564 101.279970 10.183931 -0.133958
121.050252 101.279970 10.402666 -0.532401
122.990940 101.279970 10.599216 -0.319728
124.931628 101.279970 10.133408 -0.399880
126.872316 101.279970 10.304611 -0.073023
128.813004 101.279970 10.559402 -0.574687
130.753692 101.279970 10.724838 0.211488
132.694380 101.279970 10.406445 -0.428233
134.635068 101.279970 9.830931 0.009138
136.575756 101.279970 9.869020 0.249267
138.516444 101.279970 9.780016 0.209334
140.457132 101.279970 0.000000 0.000000
-55.552357 99.339282 0.000000 0.000000
-53.611669 99.339282 0.000000 0.000000
-51.670981 99.339282 0.000000 0.000000
-49.730293 99.339282 10.121773 -0.327006
-47.789605 99.339282 9.455746 0.878233
-45.848917 99.339282 9.168862 -0.217301
-43.908229 99.339282 8.989410 1.630994
-41.967541 99.339282 9.368407 1.110298
-40.026853 99.339282 0.000000 0.000000
-38.086165 99.339282 0.000000 0.000000
-36.145477 99.339282 0.000000 0.000000
-34.204789 99.339282 0.000000 0.000000
-32.264101 99.339282 0.000000 0.000000
-30.323413 99.339282 0.000000 0.000000
-28.382725 99.339282 0.000000 0.000000
-26.442037 99.339282 0.000000 0.000000
-24.501349 99.339282 0.000000 0.000000
-22.560661 99.339282 0.000000 0.000000
-20.619973 99.339282 0.000000 0.000000
-18.679285 99.339282 0.000000 0.000000
-16.738597 99.339282 0.000000 0.000000
-14.797909 99.339282 0.000000 0.000000
-12.857221 99.339282 9.528676 0.940960
-10.916533 99.339282 9.686021 0.549143
-8.975845 99.339282 9.905092 1.409309
-7.035157 99.339282 10.007823 1.202172
-5.094469 99.339282 10.211221 1.056062
-3.153781 99.339282 9.168912 0.805890
-1.213093 99.339282 9.224901 0.465608
0.727595 99.339282 9.506124 0.809416
2.668283 99.339282 9.096734 0.362058
4.608971 99.339282 9.957376 0.941741
6.549659 99.339282 9.671116 1.145384
8.490347 99.339282 9.120665 1.163037
10.431035 99.339282 8.295619 1.751494
12.371723 99.339282 11.801322 2.205387
14.312411 99.339282 12.316176 2.144729
16.253099 99.339282 10.012428 0.722645
18.193787 99.339282 0.000000 0.000000
20.134475 99.339282 10.339236 1.172223
22.075163 99.339282 9.457286 0.833342
24.015851 99.339282 10.101963 1.224541
25.956539 99.339282 0.000000 0.000000
27.897227 99.339282 10.873394 0.741191
29.837915 99.339282 11.147307 1.342989
31.778603 99.339282 12.099126 0.050710
33.719291 99.339282 12.283220 1.085522
35.659979 99.339282 10.075352 1.081817
37.600667 99.339282 8.778748 1.187600
39.541355 99.339282 9.285332 1.037030
41.482043 99.339282 9.485340 0.391496
43.422731 99.339282 9.946300 -0.677361
45.363419 99.339282 10.466944 0.583867
47.304107 99.339282 8.214928 1.077923
49.244796 99.339282 10.948363 0.262660
51.185484 99.339282 9.561374 2.118786
53.126172 99.339282 9.634847 2.171909
55.066860 99.339282 11.274475 0.057225
57.007548 99.339282 0.000000 0.000000
58.948236 99.339282 0.000000 0.000000
60.888924 99.339282 0.000000 0.000000
62.829612 99.339282 0.000000 0.000000
64.770300 99.339282 0.000000 0.000000
66.710988 99.339282 10.871319 -0.324660
68.651676 99.339282 10.732830 0.062850
70.592364 99.339282 9.542440 0.656424
72.533052 99.339282 11.167950 -1.054247
74.473740 99.339282 10.775618 -0.052664
76.414428 99.339282 10.728506 -0.486392
78.355116 99.339282 10.807867 -0.655532
80.295804 99.339282 10.929605 -0.391082
82.236492 99.339282 10.906542 0.646201
84.177180 99.339282 10.057263 0.007196
86.117868 99.339282 10.093107 -0.732858
88.058556 99.339282 10.690935 -0.585556
89.999244 99.339282 10.413943 0.134170
91.939932 99.339282 10.360805 -0.140442
93.880620 99.339282 11.271575 -0.412426
95.821308 99.339282 10.568290 -0.209503
97.761996 99.339282 10.249967 -0.161867
99.702684 99.339282 9.860426 -0.412475
101.643372 99.339282 9.887081 -0.435082
103.584060 99.339282 10.049885 -0.263427
105.524748 99.339282 10.457631 -0.234888
107.465436 99.339282 10.043700 -0.396222
109.406124 99.339282 10.123123 -0.361824
111.346812 99.339282 9.919997 -0.435311
113.287500 99.339282 11.573962 0.041393
115.228188 99.339282 9.941691 -0.921984
117.168876 99.339282 10.189135 -0.711591
119.109564 99.339282 10.364225 -0.335603
121.050252 99.339282 10.304546 -0.669316
122.990940 99.339282 10.378923 -0.629196
124.931628 99.339282 9.709655 -0.473071
126.872316 99.339282 9.071237 -1.173369
128.813004 99.339282 10.250439 -0.659353
130.753692 99.339282 10.476657 0.002880
132.694380 99.339282 10.337277 -0.606508
134.635068 99.339282 10.008171 -0.217607
136.575756 99.339282 8.826285 -0.585412
138.516444 99.339282 9.422747 0.415145
140.457132 99.339282 0.000000 0.000000
-55.552357 97.398594 0.000000 0.000000
-53.611669 97.398594 9.196260 2.656491
-51.670981 97.398594 8.888848 2.401530
-49.730293 97.398594 8.502580 1.056335
-47.789605 97.398594 8.973709 1.100550
-45.848917 97.398594 8.967044 -0.725967
-43.908229 97.398594 8.605619 0.716975
-41.967541 97.398594 8.995225 1.391088
-40.026853 97.398594 9.244849 0.871810
-38.086165 97.398594 0.000000 0.000000
-36.145477 97.398594 0.000000 0.000000
-34.204789 97.398594 0.000000 0.000000
-32.264101 97.398594 0.000000 0.000000
-30.323413 97.398594 0.000000 0.000000
-28.382725 97.398594 0.000000 0.000000
-26.442037 97.398594 0.000000 0.000000
-24.501349 97.398594 0.000000 0.000000
-22.560661 97.398594 0.000000 0.000000
-20.619973 97.398594 0.000000 0.000000
-18.679285 97.398594 0.000000 0.000000
-16.738597 97.398594 0.000000 0.000000
-14.797909 97.398594 0.000000 0.000000
-12.857221 97.398594 9.465537 0.991445
-10.916533 97.398594 8.626197 0.406085
-8.975845 97.398594 9.509126 0.951294
-7.035157 97.398594 10.387033 1.044465
-5.094469 97.398594 10.236358 0.720117
-3.153781 97.398594 9.963916 0.598931
-1.213093 97.398594 9.350616 0.569557
0.727595 97.398594 9.436473 0.729652
2.668283 97.398594 9.858539 0.872235
4.608971 97.398594 8.689022 2.123460
6.549659 97.398594 9.594882 1.076725
8.490347 97.398594 9.093678 1.247199
10.431035 97.398594 7.806657 1.683038
12.371723 97.398594 9.892960 2.796290
14.312411 97.398594 10.572747 1.973206
16.253099 97.398594 9.925198 -0.086793
18.193787 97.398594 10.020988 -0.434686
20.134475 97.398594 10.206313 0.340595
22.075163 97.398594 10.227289 0.311260
24.015851 97.398594 10.945507 1.711851
25.956539 97.398594 10.481673 1.032785
27.897227 97.398594 10.596598 -0.146860
29.837915 97.398594 9.370573 1.657123
31.778603 97.398594 10.128497 1.936281
33.719291 97.398594 12.467308 0.947878
35.659979 97.398594 0.000000 0.000000
37.600667 97.398594 10.332765 -0.104642
39.541355 97.398594 0.000000 0.000000
41.482043 97.398594 9.552820 0.004462
43.422731 97.398594 11.455951 0.912734
45.363419 97.398594 0.000000 0.000000
47.304107 97.398594 10.240775 -0.085292
49.244796 97.398594 10.856160 0.637625
51.185484 97.398594 0.000000 0.000000
53.126172 97.398594 9.165642 3.412843
55.066860 97.398594 11.859310 1.069847
57.007548 97.398594 0.000000 0.000000
58.948236 97.398594 0.000000 0.000000
60.888924 97.398594 0.000000 0.000000
62.829612 97.398594 0.000000 0.000000
64.770300 97.398594 0.000000 0.000000
66.710988 97.398594 10.587146 -0.421484
68.651676 97.398594 10.707493 -0.623232
70.592364 97.398594 11.049546 -0.082716
72.533052 97.398594 10.374457 0.405831
74.473740 97.398594 10.272000 0.409333
76.414428 97.398594 10.973390 0.396873
78.355116 97.398594 11.203072 -0.470034
80.295804 97.398594 11.181125 0.051089
82.236492 97.398594 10.739104 0.111894
84.177180 97.398594 10.426914 0.084297
86.117868 97.398594 10.532986 0.021329
88.058556 97.398594 10.677375 -0.938007
89.999244 97.398594 10.496667 -0.057987
91.939932 97.398594 11.310220 -0.448624
93.880620 97.398594 10.651507 -0.344379
95.821308 97.398594 10.681601 -0.276678
97.761996 97.398594 10.402978 -0.054796
99.702684 97.398594 10.148223 0.055914
101.643372 97.398594 10.893993 -0.291863
103.584060 97.398594 10.720504 -0.416712
105.524748 97.398594 10.554659 -0.687761
107.465436 97.398594 9.746033 -0.780101
109.406124 97.398594 10.596156 -0.783877
111.346812 97.398594 10.308146 -0.676915
113.287500 97.398594 10.590974 -0.488655
115.228188 97.398594 10.583817 -0.711162
117.168876 97.398594 10.525944 -0.954638
119.109564 97.398594 10.652467 -0.735273
121.050252 97.398594 9.807753 -0.888060
122.990940 97.398594 9.841903 -0.871772
124.931628 97.398594 10.293704 -0.464481
126.872316 97.398594 9.777184 -0.391119
128.813004 97.398594 10.265903 -0.646198
130.753692 97.398594 10.291595 -0.353356
132.694380 97.398594 9.577848 -0.638647
134.635068 97.398594 9.864285 -0.294892
136.575756 97.398594 9.101194 -0.390463
138.516444 97.398594 9.745804 -0.109870
140.457132 97.398594 0.000000 0.000000
-55.552357 95.457906 0.000000 0.000000
-53.611669 95.457906 9.162181 2.159401
-51.670981 95.457906 8.951358 0.424868
-49.730293 95.457906 6.775660 0.414349
-47.789605 95.457906 9.649270 1.284113
-45.848917 95.457906 9.813089 -0.016483
-43.908229 95.457906 8.929806 0.674316
-41.967541 95.457906 8.756723 1.712902
-40.026853 95.457906 9.217730 1.728228
-38.086165 95.457906 0.000000 0.000000
-36.145477 95.457906 0.000000 0.000000
-34.204789 95.457906 0.000000 0.000000
-32.264101 95.457906 0.000000 0.000000
-30.323413 95.457906 0.000000 0.000000
-28.382725 95.457906 0.000000 0.000000
-26.442037 95.457906 0.000000 0.000000
-24.501349 95.457906 0.000000 0.000000
-22.560661 95.457906 0.000000 0.000000
-20.619973 95.457906 0.000000 0.000000
-18.679285 95.457906 0.000000 0.000000
-16.738597 95.457906 0.000000 0.000000
-14.797909 95.457906 9.978821 0.813816
-12.857221 95.457906 9.962855 0.956661
-10.916533 95.457906 9.664453 1.049182
-8.975845 95.457906 9.280628 0.834590
-7.035157 95.457906 10.603547 -0.592407
-5.094469 95.457906 11.246815 -0.172785
-3.153781 95.457906 10.405396 -0.090358
-1.213093 95.457906 9.036849 0.734439
0.727595 95.457906 9.162175 0.741588
2.668283 95.457906 10.538835 -0.274712
4.608971 95.457906 8.977454 2.202904
6.549659 95.457906 10.090738 1.889563
8.490347 95.457906 10.339505 -0.729732
10.431035 95.457906 6.933800 1.780222
12.371723 95.457906 11.722432 1.935880
14.312411 95.457906 0.000000 0.000000
16.253099 95.457906 0.000000 0.000000
18.193787 95.457906 9.621753 -0.040999
20.134475 95.457906 10.165223 0.018497
22.075163 95.457906 10.548122 -0.318418
24.015851 95.457906 10.018845 0.196950
25.956539 95.457906 10.077807 0.411537
27.897227 95.457906 10.556963 -0.099601
29.837915 95.457906 9.299469 1.228194
31.778603 95.457906 11.253626 -0.687947
33.719291 95.457906 13.090085 0.434381
35.659979 95.457906 0.000000 0.000000
37.600667 95.457906 0.000000 0.000000
39.541355 95.457906 10.089035 -0.061667
41.482043 95.457906 11.854115 1.746656
43.422731 95.457906 12.187494 1.058073
45.363419 95.457906 9.071471 0.943578
47.304107 95.457906 9.715658 1.119334
49.244796 95.457906 9.356208 0.631056
51.185484 95.457906 12.018891 0.890741
53.126172 95.457906 0.000000 0.000000
55.066860 95.457906 10.749395 0.358628
57.007548 95.457906 9.141794 0.852147
58.948236 95.457906 0.000000 0.000000
60.888924 95.457906 0.000000 0.000000
62.829612 95.457906 0.000000 0.000000
64.770300 95.457906 0.000000 0.000000
66.710988 95.457906 10.526674 -0.457684
68.651676 95.457906 10.499807 0.803361
70.592364 95.457906 12.685488 -0.605185
72.533052 95.457906 10.138722 0.102823
74.473740 95.457906 9.642777 0.579203
76.414428 95.457906 10.725782 0.539581
78.355116 95.457906 10.805440 -0.132536
80.295804 95.457906 10.603427 0.439029
82.236492 95.457906 10.497114 0.280016
84.177180 95.457906 10.512291 0.229309
86.117868 95.457906 10.495569 0.053660
88.058556 95.457906 10.470963 -0.222221
89.999244 95.457906 10.692592 -0.523214
91.939932 95.457906 10.311614 -0.853682
93.880620 95.457906 10.983075 0.061141
95.821308 95.457906 11.750833 -0.284402
97.761996 95.457906 10.472653 -0.225560
99.702684 95.457906 10.654459 -0.771128
101.643372 95.457906 10.992887 -0.784251
103.584060 95.457906 10.669312 -0.148928
105.524748 95.457906 10.476389 -0.699444
107.465436 95.457906 10.113595 -0.752655
109.406124 95.457906 10.211816 -1.217619
111.346812 95.457906 10.686290 -0.611758
113.287500 95.457906 10.282460 -0.346175
115.228188 95.457906 10.601373 -0.344045
117.168876 95.457906 10.650819 -0.276533
119.109564 95.457906 10.437704 -1.056039
121.050252 95.457906 9.573253 -0.892302
122.990940 95.457906 10.083026 -0.280141
124.931628 95.457906 10.367711 0.192158
126.872316 95.457906 10.143685 -0.345460
128.813004 95.457906 10.310978 -0.499679
130.753692 95.457906 10.513587 0.092713
132.694380 95.457906 10.392197 -0.397897
134.635068 95.457906 9.919667 -0.202133
136.575756 95.457906 10.193059 -0.453459
138.516444 95.457906 10.051229 -0.241541
140.457132 95.457906 0.000000 0.000000
-55.552357 93.517218 0.000000 0.000000
-53.611669 93.517218 8.579329 1.004444
-51.670981 93.517218 8.841030 0.673019
-49.730293 93.517218 9.713557 -0.853859
-47.789605 93.517218 10.326025 0.937572
-45.848917 93.517218 9.624214 0.574972
-43.908229 93.517218 10.681660 -0.370724
-41.967541 93.517218 9.298840 1.907796
-40.026853 93.517218 9.179627 0.312147
-38.086165 93.517218 0.000000 0.000000
-36.145477 93.517218 0.000000 0.000000
-34.204789 93.517218 0.000000 0.000000
-32.264101 93.517218 0.000000 0.000000
-30.323413 93.517218 0.000000 0.000000
-28.382725 93.517218 0.000000 0.000000
-26.442037 93.517218 0.000000 0.000000
-24.501349 93.517218 0.000000 0.000000
-22.560661 93.517218 0.000000 0.000000
-20.619973 93.517218 0.000000 0.000000
-18.679285 93.517218 0.000000 0.000000
-16.738597 93.517218 0.000000 0.000000
-14.797909 93.517218 10.109471 0.853643
-12.857221 93.517218 9.890677 0.804266
-10.916533 93.517218 10.522828 0.688191
-8.975845 93.517218 9.704655 0.705755
-7.035157 93.517218 11.532829 -1.381320
-5.094469 93.517218 10.859896 -0.732483
-3.153781 93.517218 8.539151 2.228286
-1.213093 93.517218 8.737845 1.414702
0.727595 93.517218 9.092610 1.880841
2.668283 93.517218 10.509388 -0.115501
4.608971 93.517218 10.424070 -0.505950
6.549659 93.517218 7.231696 1.446723
8.490347 93.517218 9.141477 0.936902
10.431035 93.517218 9.170994 0.646769
12.371723 93.517218 10.735360 1.278457
14.312411 93.517218 9.469680 3.844232
16.253099 93.517218 9.937379 2.168775
18.193787 93.517218 9.299629 2.936781
20.134475 93.517218 10.062822 -2.066345
22.075163 93.517218 10.017783 2.058208
24.015851 93.517218 10.373865 1.764786
25.956539 93.517218 9.813204 2.419314
27.897227 93.517218 9.989348 0.382381
29.837915 93.517218 10.111778 0.550292
31.778603 93.517218 9.795566 0.930641
33.719291 93.517218 8.558739 -0.689630
35.659979 93.517218 0.000000 0.000000
37.600667 93.517218 11.338259 -0.129476
39.541355 93.517218 10.317974 -0.135959
41.482043 93.517218 10.076768 -0.347596
43.422731 93.517218 11.846099 0.821145
45.363419 93.517218 9.419921 1.228335
47.304107 93.517218 10.358457 1.042807
49.244796 93.517218 9.157662 0.767756
51.185484 93.517218 9.759339 1.010764
53.126172 93.517218 10.309007 1.849644
55.066860 93.517218 10.899287 -0.101733
57.007548 93.517218 11.461910 -0.219350
58.948236 93.517218 0.000000 0.000000
60.888924 93.517218 0.000000 0.000000
62.829612 93.517218 0.000000 0.000000
64.770300 93.517218 0.000000 0.000000
66.710988 93.517218 10.400519 -0.606016
68.651676 93.517218 10.095439 -0.327740
70.592364 93.517218 10.476879 -0.358448
72.533052 93.517218 10.428904 0.158375
74.473740 93.517218 10.480042 0.569102
76.414428 93.517218 10.966334 0.459661
78.355116 93.517218 10.510311 0.115464
80.295804 93.517218 10.145191 -0.686394
82.236492 93.517218 10.484727 0.555752
84.177180 93.517218 11.069489 -0.264883
86.117868 93.517218 10.789248 -0.905661
88.058556 93.517218 10.440252 0.377128
89.999244 93.517218 10.659289 -0.039221
91.939932 93.517218 10.200699 -0.334472
93.880620 93.517218 10.909833 -0.354306
95.821308 93.517218 11.318233 -0.305261
97.761996 93.517218 10.359496 0.249510
99.702684 93.517218 10.473332 -0.385986
101.643372 93.517218 10.582775 -0.714097
103.584060 93.517218 10.299596 -0.438061
105.524748 93.517218 10.565976 -0.049023
107.465436 93.517218 10.133241 -0.517296
109.406124 93.517218 9.755749 -0.731168
111.346812 93.517218 10.399735 -0.004883
113.287500 93.517218 10.341146 -0.432858
115.228188 93.517218 10.369845 -0.204430
117.168876 93.517218 10.345795 -0.469885
119.109564 93.517218 10.277470 -0.960744
121.050252 93.517218 10.467317 -0.599588
122.990940 93.517218 10.463921 -0.317132
124.931628 93.517218 9.506497 0.496114
126.872316 93.517218 10.159183 -0.508953
128.813004 93.517218 9.926509 -0.911010
130.753692 93.517218 10.031297 -0.753067
132.694380 93.517218 10.354971 -0.467092
134.635068 93.517218 10.282380 -0.420322
136.575756 93.517218 10.309988 -0.503304
138.516444 93.517218 9.945226 -0.202298
140.457132 93.517218 0.000000 0.000000
-55.552357 91.576530 0.000000 0.000000
-53.611669 91.576530 0.000000 0.000000
-51.670981 91.576530 8.994096 0.918322
-49.730293 91.576530 9.281473 -0.338565
-47.789605 91.576530 9.313057 -0.054341
-45.848917 91.576530 9.480257 1.283497
-43.908229 91.576530 9.155274 1.557187
-41.967541 91.576530 9.822384 1.595502
-40.026853 91.576530 10.138463 -0.863999
-38.086165 91.576530 0.000000 0.000000
-36.145477 91.576530 0.000000 0.000000
-34.204789 91.576530 0.000000 0.000000
-32.264101 91.576530 0.000000 0.000000
-30.323413 91.576530 0.000000 0.000000
-28.382725 91.576530 0.000000 0.000000
-26.442037 91.576530 0.000000 0.000000
-24.501349 91.576530 0.000000 0.000000
-22.560661 91.576530 0.000000 0.000000
-20.619973 91.576530 0.000000 0.000000
-18.679285 91.576530 0.000000 0.000000
-16.738597 91.576530 0.000000 0.000000
-14.797909 91.576530 9.884243 0.856045
-12.857221 91.576530 9.709039 1.396185
-10.916533 91.576530 10.137347 1.113802
-8.975845 91.576530 9.397597 1.206179
-7.035157 91.576530 9.133235 0.996661
-5.094469 91.576530 8.901815 0.304972
-3.153781 91.576530 8.769037 1.958984
-1.213093 91.576530 10.993026 0.444276
0.727595 91.576530 9.505590 2.105099
2.668283 91.576530 9.314433 1.147802
4.608971 91.576530 8.790451 2.125967
6.549659 91.576530 8.262983 1.388042
8.490347 91.576530 10.515154 1.369386
10.431035 91.576530 9.959135 0.744129
12.371723 91.576530 10.124169 1.765468
14.312411 91.576530 9.541354 2.773029
16.253099 91.576530 9.894403 1.847834
18.193787 91.576530 9.439342 1.691413
20.134475 91.576530 10.592488 0.424693
22.075163 91.576530 10.622422 1.348301
24.015851 91.576530 0.000000 0.000000
25.956539 91.576530 9.686064 0.474282
27.897227 91.576530 9.464608 0.743409
29.837915 91.576530 10.132510 0.748531
31.778603 91.576530 9.944122 1.082678
33.719291 91.576530 11.197565 0.278929
35.659979 91.576530 9.692480 0.187591
37.600667 91.576530 10.789964 -0.181226
39.541355 91.576530 10.885949 -0.476211
41.482043 91.576530 9.797792 -0.356049
43.422731 91.576530 11.633059 1.615472
45.363419 91.576530 10.592930 0.908775
47.304107 91.576530 9.564687 -0.457230
49.244796 91.576530 0.000000 0.000000
51.185484 91.576530 11.887464 1.082417
53.126172 91.576530 10.552342 1.577337
55.066860 91.576530 10.814181 -0.560814
57.007548 91.576530 11.814740 0.299858
58.948236 91.576530 0.000000 0.000000
60.888924 91.576530 0.000000 0.000000
62.829612 91.576530 0.000000 0.000000
64.770300 91.576530 0.000000 0.000000
66.710988 91.576530 10.512103 -0.034548
68.651676 91.576530 10.070889 -0.311404
70.592364 91.576530 10.671653 0.315020
72.533052 91.576530 10.643262 0.341897
74.473740 91.576530 11.676669 0.321480
76.414428 91.576530 10.600382 0.320291
78.355116 91.576530 10.201054 0.010846
80.295804 91.576530 10.616515 -0.129092
82.236492 91.576530 10.501081 0.037793
84.177180 91.576530 10.923264 -0.052841
86.117868 91.576530 10.954922 0.049914
88.058556 91.576530 10.548110 0.350040
89.999244 91.576530 10.542360 0.441980
91.939932 91.576530 10.720658 -0.497213
93.880620 91.576530 10.122149 -0.561526
95.821308 91.576530 10.436002 -0.349362
97.761996 91.576530 10.438870 -0.493570
99.702684 91.576530 10.817014 -0.379838
101.643372 91.576530 10.186935 -0.234601
103.584060 91.576530 10.474862 0.152967
105.524748 91.576530 10.474010 -0.482256
107.465436 91.576530 10.151888 -0.303812
109.406124 91.576530 10.020288 -0.731142
111.346812 91.576530 10.329224 -0.455123
113.287500 91.576530 10.522181 -1.004058
115.228188 91.576530 10.490921 -0.296292
117.168876 91.576530 10.378535 -0.113021
119.109564 91.576530 10.618607 -0.591637
121.050252 91.576530 10.383821 -0.109306
122.990940 91.576530 10.358081 -0.636221
124.931628 91.576530 10.149040 -0.790737
126.872316 91.576530 10.191544 -0.608501
128.813004 91.576530 9.717783 -0.745502
130.753692 91.576530 9.895872 -1.167265
132.694380 91.576530 9.358765 -0.835120
134.635068 91.576530 10.439435 -0.690396
136.575756 91.576530 10.249066 -0.376284
138.516444 91.576530 10.042026 -0.098499
140.457132 91.576530 0.000000 0.000000
-55.552357 89.635842 0.000000 0.000000
-53.611669 89.635842 0.000000 0.000000
-51.670981 89.635842 10.009331 0.598184
-49.730293 89.635842 9.297010 0.373354
-47.789605 89.635842 9.318079 0.775728
-45.848917 89.635842 9.205104 0.796161
-43.908229 89.635842 9.103110 1.881783
-41.967541 89.635842 0.000000 0.000000
-40.026853 89.635842 10.037411 0.273640
-38.086165 89.635842 0.000000 0.000000
-36.145477 89.635842 0.000000 0.000000
-34.204789 89.635842 0.000000 0.000000
-32.264101 89.635842 0.000000 0.000000
-30.323413 89.635842 0.000000 0.000000
-28.382725 89.635842 0.000000 0.000000
-26.442037 89.635842 0.000000 0.000000
-24.501349 89.635842 0.000000 0.000000
-22.560661 89.635842 0.000000 0.000000
-20.619973 89.635842 0.000000 0.000000
-18.679285 89.635842 0.000000 0.000000
-16.738597 89.635842 0.000000 0.000000
-14.797909 89.635842 9.100347 0.853321
-12.857221 89.635842 9.678143 1.433361
-10.916533 89.635842 10.301437 1.531376
-8.975845 89.635842 9.235059 0.820170
-7.035157 89.635842 9.457329 1.113699
-5.094469 89.635842 9.982143 0.530777
-3.153781 89.635842 9.023545 0.869742
-1.213093 89.635842 9.486034 1.045798
0.727595 89.635842 9.836240 1.533239
2.668283 89.635842 10.010612 0.867649
4.608971 89.635842 9.447082 1.346979
6.549659 89.635842 8.897099 0.588022
8.490347 89.635842 10.216039 0.368297
10.431035 89.635842 10.426652 0.711176
12.371723 89.635842 10.150923 1.437149
14.312411 89.635842 10.363272 1.079209
16.253099 89.635842 10.173307 1.135809
18.193787 89.635842 10.657047 1.839029
20.134475 89.635842 11.308560 1.071195
22.075163 89.635842 10.976199 0.807340
24.015851 89.635842 10.940312 1.095883
25.956539 89.635842 9.432920 0.953229