TITLE = "B00001"
VARIABLES = "position", "position(2)", "Avg Vx"
ZONE T="Frame 1" I=102, J=78, F=POINT
-55.552399 103.221001 0.000000
-53.611710 103.221001 9.419240
-51.671021 103.221001 9.558084
-49.730328 103.221001 9.489046
-47.789639 103.221001 9.859591
-45.848949 103.221001 9.749193
-43.908257 103.221001 9.703357
-41.967567 103.221001 9.768447
-40.026878 103.221001 9.085361
-38.086189 103.221001 0.000000
-36.145500 103.221001 0.000000
-34.204807 103.221001 0.000000
-32.264118 103.221001 0.000000
-30.323429 103.221001 0.000000
-28.382738 103.221001 0.000000
-26.442047 103.221001 0.000000
-24.501358 103.221001 0.000000
-22.560669 103.221001 0.000000
-20.619980 103.221001 0.000000
-18.679287 103.221001 0.000000
-16.738598 103.221001 0.000000
-14.797909 103.221001 0.000000
-12.857216 103.221001 9.646464
-10.916527 103.221001 9.751539
-8.975838 103.221001 9.777626
-7.035149 103.221001 9.522556
-5.094460 103.221001 9.856497
-3.153767 103.221001 9.414380
-1.213078 103.221001 10.064084
0.727612 103.221001 10.269414
2.668304 103.221001 9.635905
4.608994 103.221001 9.540454
6.549683 103.221001 9.966039
8.490372 103.221001 10.157369
10.431061 103.221001 10.118863
12.371750 103.221001 9.848961
14.312439 103.221001 9.956780
16.253136 103.221001 10.324740
18.193825 103.221001 10.765105
20.134514 103.221001 10.678555
22.075203 103.221001 10.276748
24.015892 103.221001 10.089428
25.956581 103.221001 10.010261
27.897270 103.221001 10.771186
29.837967 103.221001 10.675365
31.778656 103.221001 10.193715
33.719345 103.221001 10.047101
35.660034 103.221001 9.978544
37.600723 103.221001 10.341029
39.541412 103.221001 9.677921
41.482101 103.221001 9.120985
43.422791 103.221001 10.318939
45.363480 103.221001 10.703184
47.304176 103.221001 10.485981
49.244865 103.221001 10.706167
51.185555 103.221001 10.491666
53.126244 103.221001 10.956223
55.066933 103.221001 10.538195
57.007622 103.221001 0.000000
58.948311 103.221001 0.000000
60.889008 103.221001 0.000000
62.829697 103.221001 0.000000
64.770386 103.221001 0.000000
66.711075 103.221001 9.969096
68.651764 103.221001 10.279109
70.592453 103.221001 10.403949
72.533142 103.221001 10.524335
74.473831 103.221001 10.418558
76.414520 103.221001 10.028615
78.355209 103.221001 10.210530
80.295898 103.221001 10.834530
82.236588 103.221001 10.516224
84.177277 103.221001 10.780448
86.117981 103.221001 10.798760
88.058670 103.221001 10.586493
89.999359 103.221001 10.664758
91.940048 103.221001 10.895988
93.880737 103.221001 10.812415
95.821426 103.221001 10.530053
97.762115 103.221001 10.430239
99.702805 103.221001 10.379551
101.643494 103.221001 10.304700
103.584183 103.221001 10.425934
105.524872 103.221001 10.421534
107.465561 103.221001 10.234285
109.406250 103.221001 10.107215
111.346939 103.221001 10.272458
113.287628 103.221001 10.235991
115.228333 103.221001 10.130232
117.169022 103.221001 10.142428
119.109711 103.221001 10.295753
121.050400 103.221001 10.509382
122.991089 103.221001 10.499420
124.931778 103.221001 10.260108
126.872467 103.221001 10.322671
128.813156 103.221001 10.219970
130.753845 103.221001 10.299318
132.694534 103.221001 10.158034
134.635223 103.221001 10.134768
136.575912 103.221001 9.986630
138.516602 103.221001 9.968720
140.457291 103.221001 0.000000
-55.552399 101.280312 9.135453
-53.611710 101.280312 9.145906
-51.671021 101.280312 9.071737
-49.730328 101.280312 9.310879
-47.789639 101.280312 9.604398
-45.848949 101.280312 9.808891
-43.908257 101.280312 9.697732
-41.967567 101.280312 9.485881
-40.026878 101.280312 9.216629
-38.086189 101.280312 0.000000
-36.145500 101.280312 0.000000
-34.204807 101.280312 0.000000
-32.264118 101.280312 0.000000
-30.323429 101.280312 0.000000
-28.382738 101.280312 0.000000
-26.442047 101.280312 0.000000
-24.501358 101.280312 0.000000
-22.560669 101.280312 0.000000
-20.619980 101.280312 0.000000
-18.679287 101.280312 0.000000
-16.738598 101.280312 0.000000
-14.797909 101.280312 9.644552
-12.857216 101.280312 9.643317
-10.916527 101.280312 9.748818
-8.975838 101.280312 9.813765
-7.035149 101.280312 9.735647
-5.094460 101.280312 9.664818
-3.153767 101.280312 9.555069
-1.213078 101.280312 9.632961
0.727612 101.280312 10.096138
2.668304 101.280312 10.055459
4.608994 101.280312 10.156453
6.549683 101.280312 9.977976
8.490372 101.280312 9.953211
10.431061 101.280312 9.961748
12.371750 101.280312 9.857079
14.312439 101.280312 10.424984
16.253136 101.280312 10.238787
18.193825 101.280312 10.524693
20.134514 101.280312 10.418520
22.075203 101.280312 10.124892
24.015892 101.280312 10.184639
25.956581 101.280312 10.203666
27.897270 101.280312 10.573638
29.837967 101.280312 10.390952
31.778656 101.280312 10.635361
33.719345 101.280312 10.342144
35.660034 101.280312 10.244625
37.600723 101.280312 10.283559
39.541412 101.280312 9.978971
41.482101 101.280312 10.147803
43.422791 101.280312 10.842562
45.363480 101.280312 10.543498
47.304176 101.280312 10.536603
49.244865 101.280312 10.709975
51.185555 101.280312 10.810262
53.126244 101.280312 10.811165
55.066933 101.280312 10.832776
57.007622 101.280312 10.849354
58.948311 101.280312 0.000000
60.889008 101.280312 0.000000
62.829697 101.280312 0.000000
64.770386 101.280312 0.000000
66.711075 101.280312 10.201328
68.651764 101.280312 10.195591
70.592453 101.280312 10.527259
72.533142 101.280312 10.707335
74.473831 101.280312 10.398229
76.414520 101.280312 10.198462
78.355209 101.280312 10.547950
80.295898 101.280312 10.667237
82.236588 101.280312 10.767879
84.177277 101.280312 10.527320
86.117981 101.280312 10.584290
88.058670 101.280312 10.565752
89.999359 101.280312 10.786360
91.940048 101.280312 10.874445
93.880737 101.280312 10.557192
95.821426 101.280312 10.490255
97.762115 101.280312 10.390747
99.702805 101.280312 10.268430
101.643494 101.280312 10.372130
103.584183 101.280312 10.430784
105.524872 101.280312 10.477266
107.465561 101.280312 10.291116
109.406250 101.280312 10.158703
111.346939 101.280312 10.242766
113.287628 101.280312 10.177739
115.228333 101.280312 10.028576
117.169022 101.280312 10.161630
119.109711 101.280312 10.269127
121.050400 101.280312 10.260641
122.991089 101.280312 10.325314
124.931778 101.280312 10.178812
126.872467 101.280312 10.250333
128.813156 101.280312 10.316039
130.753845 101.280312 10.266354
132.694534 101.280312 10.156270
134.635223 101.280312 10.111579
136.575912 101.280312 9.999046
138.516602 101.280312 9.836877
140.457291 101.280312 0.000000
-55.552399 99.339622 9.106896
-53.611710 99.339622 9.219385
-51.671021 99.339622 9.132751
-49.730328 99.339622 9.229568
-47.789639 99.339622 9.559367
-45.848949 99.339622 9.745304
-43.908257 99.339622 9.507909
-41.967567 99.339622 9.024348
-40.026878 99.339622 9.337241
-38.086189 99.339622 0.000000
-36.145500 99.339622 0.000000
-34.204807 99.339622 0.000000
-32.264118 99.339622 0.000000
-30.323429 99.339622 0.000000
-28.382738 99.339622 0.000000
-26.442047 99.339622 0.000000
-24.501358 99.339622 0.000000
-22.560669 99.339622 0.000000
-20.619980 99.339622 0.000000
-18.679287 99.339622 0.000000
-16.738598 99.339622 0.000000
-14.797909 99.339622 9.607919
-12.857216 99.339622 9.657967
-10.916527 99.339622 9.851286
-8.975838 99.339622 9.809680
-7.035149 99.339622 9.719921
-5.094460 99.339622 9.644611
-3.153767 99.339622 9.541141
-1.213078 99.339622 9.497518
0.727612 99.339622 9.944432
2.668304 99.339622 10.088642
4.608994 99.339622 9.880703
6.549683 99.339622 9.790410
8.490372 99.339622 9.667644
10.431061 99.339622 9.763860
12.371750 99.339622 10.070813
14.312439 99.339622 10.411128
16.253136 99.339622 10.376115
18.193825 99.339622 10.474593
20.134514 99.339622 9.823217
22.075203 99.339622 9.927306
24.015892 99.339622 10.542811
25.956581 99.339622 10.531563
27.897270 99.339622 10.253437
29.837967 99.339622 10.126137
31.778656 99.339622 10.341049
33.719345 99.339622 10.585858
35.660034 99.339622 10.126314
37.600723 99.339622 10.430819
39.541412 99.339622 10.201521
41.482101 99.339622 10.418810
43.422791 99.339622 10.249126
45.363480 99.339622 10.477916
47.304176 99.339622 10.718537
49.244865 99.339622 10.678070
51.185555 99.339622 10.870893
53.126244 99.339622 10.674022
55.066933 99.339622 10.759634
57.007622 99.339622 11.182987
58.948311 99.339622 0.000000
60.889008 99.339622 0.000000
62.829697 99.339622 0.000000
64.770386 99.339622 0.000000
66.711075 99.339622 10.585689
68.651764 99.339622 10.722438
70.592453 99.339622 10.695969
72.533142 99.339622 10.616220
74.473831 99.339622 10.567222
76.414520 99.339622 10.629253
78.355209 99.339622 10.751245
80.295898 99.339622 10.733142
82.236588 99.339622 10.586871
84.177277 99.339622 10.403014
86.117981 99.339622 10.521892
88.058670 99.339622 10.527719
89.999359 99.339622 10.662161
91.940048 99.339622 10.741191
93.880737 99.339622 10.421491
95.821426 99.339622 10.485514
97.762115 99.339622 10.355458
99.702805 99.339622 10.189559
101.643494 99.339622 10.382936
103.584183 99.339622 10.326261
105.524872 99.339622 10.473948
107.465561 99.339622 10.344490
109.406250 99.339622 10.149209
111.346939 99.339622 10.082683
113.287628 99.339622 10.146284
115.228333 99.339622 10.128261
117.169022 99.339622 10.222192
119.109711 99.339622 10.303277
121.050400 99.339622 10.258328
122.991089 99.339622 10.201355
124.931778 99.339622 10.112627
126.872467 99.339622 10.066930
128.813156 99.339622 10.104790
130.753845 99.339622 10.248941
132.694534 99.339622 10.166154
134.635223 99.339622 10.081523
136.575912 99.339622 10.089622
138.516602 99.339622 10.122400
140.457291 99.339622 0.000000
-55.552399 97.398933 9.195955
-53.611710 97.398933 8.784381
-51.671021 97.398933 8.889479
-49.730328 97.398933 9.341430
-47.789639 97.398933 9.486554
-45.848949 97.398933 9.497551
-43.908257 97.398933 9.291354
-41.967567 97.398933 9.207011
-40.026878 97.398933 9.306264
-38.086189 97.398933 0.000000
-36.145500 97.398933 0.000000
-34.204807 97.398933 0.000000
-32.264118 97.398933 0.000000
-30.323429 97.398933 0.000000
-28.382738 97.398933 0.000000
-26.442047 97.398933 0.000000
-24.501358 97.398933 0.000000
-22.560669 97.398933 0.000000
-20.619980 97.398933 0.000000
-18.679287 97.398933 0.000000
-16.738598 97.398933 0.000000
-14.797909 97.398933 9.631029
-12.857216 97.398933 9.675653
-10.916527 97.398933 9.765393
-8.975838 97.398933 9.772218
-7.035149 97.398933 9.785866
-5.094460 97.398933 9.831406
-3.153767 97.398933 9.582289
-1.213078 97.398933 9.623310
0.727612 97.398933 9.815093
2.668304 97.398933 10.110215
4.608994 97.398933 9.949884
6.549683 97.398933 9.755583
8.490372 97.398933 9.904918
10.431061 97.398933 9.775854
12.371750 97.398933 10.438066
14.312439 97.398933 10.213756
16.253136 97.398933 10.631336
18.193825 97.398933 10.245931
20.134514 97.398933 10.085918
22.075203 97.398933 9.851276
24.015892 97.398933 10.434553
25.956581 97.398933 10.418290
27.897270 97.398933 10.190343
29.837967 97.398933 9.991360
31.778656 97.398933 10.216796
33.719345 97.398933 10.989992
35.660034 97.398933 11.128087
37.600723 97.398933 10.474544
39.541412 97.398933 10.240649
41.482101 97.398933 10.505713
43.422791 97.398933 10.415042
45.363480 97.398933 10.739265
47.304176 97.398933 11.068151
49.244865 97.398933 10.747793
51.185555 97.398933 10.644642
53.126244 97.398933 11.010133
55.066933 97.398933 10.998202
57.007622 97.398933 10.115809
58.948311 97.398933 0.000000
60.889008 97.398933 0.000000
62.829697 97.398933 0.000000
64.770386 97.398933 0.000000
66.711075 97.398933 10.785639
68.651764 97.398933 10.946263
70.592453 97.398933 10.689176
72.533142 97.398933 10.568924
74.473831 97.398933 10.793744
76.414520 97.398933 10.748652
78.355209 97.398933 10.824585
80.295898 97.398933 10.708077
82.236588 97.398933 10.416812
84.177277 97.398933 10.461763
86.117981 97.398933 10.705845
88.058670 97.398933 10.655925
89.999359 97.398933 10.459758
91.940048 97.398933 10.510859
93.880737 97.398933 10.591148
95.821426 97.398933 10.550675
97.762115 97.398933 10.393346
99.702805 97.398933 10.341658
101.643494 97.398933 10.370810
103.584183 97.398933 10.378024
105.524872 97.398933 10.370173
107.465561 97.398933 10.328634
109.406250 97.398933 10.233339
111.346939 97.398933 10.247698
113.287628 97.398933 10.175036
115.228333 97.398933 10.245997
117.169022 97.398933 10.280434
119.109711 97.398933 10.283057
121.050400 97.398933 10.362249
122.991089 97.398933 10.240307
124.931778 97.398933 10.039740
126.872467 97.398933 9.964482
128.813156 97.398933 10.085706
130.753845 97.398933 10.154817
132.694534 97.398933 10.015915
134.635223 97.398933 10.019758
136.575912 97.398933 10.108572
138.516602 97.398933 10.110867
140.457291 97.398933 0.000000
-55.552399 95.458237 9.183094
-53.611710 95.458237 9.226198
-51.671021 95.458237 9.118367
-49.730328 95.458237 9.181013
-47.789639 95.458237 9.204750
-45.848949 95.458237 9.306872
-43.908257 95.458237 9.409540
-41.967567 95.458237 9.181642
-40.026878 95.458237 9.342490
-38.086189 95.458237 0.000000
-36.145500 95.458237 0.000000
-34.204807 95.458237 0.000000
-32.264118 95.458237 0.000000
-30.323429 95.458237 0.000000
-28.382738 95.458237 0.000000
-26.442047 95.458237 0.000000
-24.501358 95.458237 0.000000
-22.560669 95.458237 0.000000
-20.619980 95.458237 0.000000
-18.679287 95.458237 0.000000
-16.738598 95.458237 0.000000
-14.797909 95.458237 9.674267
-12.857216 95.458237 9.646733
-10.916527 95.458237 9.661805
-8.975838 95.458237 9.707421
-7.035149 95.458237 9.735244
-5.094460 95.458237 9.882271
-3.153767 95.458237 9.734037
-1.213078 95.458237 9.625094
0.727612 95.458237 9.736416
2.668304 95.458237 10.090391
4.608994 95.458237 10.209770
6.549683 95.458237 9.831824
8.490372 95.458237 9.648694
10.431061 95.458237 9.869302
12.371750 95.458237 10.420053
14.312439 95.458237 10.089843
16.253136 95.458237 10.008657
18.193825 95.458237 10.358598
20.134514 95.458237 10.333646
22.075203 95.458237 10.347042
24.015892 95.458237 10.190685
25.956581 95.458237 10.229383
27.897270 95.458237 10.002421
29.837967 95.458237 10.062509
31.778656 95.458237 10.271468
33.719345 95.458237 10.515470
35.660034 95.458237 10.830386
37.600723 95.458237 10.676523
39.541412 95.458237 10.255114
41.482101 95.458237 10.456444
43.422791 95.458237 10.963184
45.363480 95.458237 10.792168
47.304176 95.458237 10.479875
49.244865 95.458237 10.438869
51.185555 95.458237 9.886533
53.126244 95.458237 10.780225
55.066933 95.458237 10.940153
57.007622 95.458237 10.201293
58.948311 95.458237 0.000000
60.889008 95.458237 0.000000
62.829697 95.458237 0.000000
64.770386 95.458237 0.000000
66.711075 95.458237 10.896862
68.651764 95.458237 10.941689
70.592453 95.458237 10.622447
72.533142 95.458237 10.363626
74.473831 95.458237 10.576378
76.414520 95.458237 10.720046
78.355209 95.458237 10.711689
80.295898 95.458237 10.689990
82.236588 95.458237 10.624826
84.177277 95.458237 10.664557
86.117981 95.458237 10.745290
88.058670 95.458237 10.636055
89.999359 95.458237 10.522527
91.940048 95.458237 10.491703
93.880737 95.458237 10.597855
95.821426 95.458237 10.575648
97.762115 95.458237 10.552736
99.702805 95.458237 10.587451
101.643494 95.458237 10.440020
103.584183 95.458237 10.428826
105.524872 95.458237 10.340557
107.465561 95.458237 10.220805
109.406250 95.458237 10.298453
111.346939 95.458237 10.306489
113.287628 95.458237 10.232145
115.228333 95.458237 10.287502
117.169022 95.458237 10.236729
119.109711 95.458237 10.134276
121.050400 95.458237 10.148227
122.991089 95.458237 10.123091
124.931778 95.458237 10.153204
126.872467 95.458237 10.126316
128.813156 95.458237 10.151273
130.753845 95.458237 10.190873
132.694534 95.458237 9.993730
134.635223 95.458237 9.977717
136.575912 95.458237 10.048165
138.516602 95.458237 10.039353
140.457291 95.458237 0.000000
-55.552399 93.517548 9.484958
-53.611710 93.517548 9.600523
-51.671021 93.517548 9.586319
-49.730328 93.517548 9.127546
-47.789639 93.517548 9.147217
-45.848949 93.517548 9.366315
-43.908257 93.517548 9.419087
-41.967567 93.517548 9.156810
-40.026878 93.517548 9.188611
-38.086189 93.517548 0.000000
-36.145500 93.517548 0.000000
-34.204807 93.517548 0.000000
-32.264118 93.517548 0.000000
-30.323429 93.517548 0.000000
-28.382738 93.517548 0.000000
-26.442047 93.517548 0.000000
-24.501358 93.517548 0.000000
-22.560669 93.517548 0.000000
-20.619980 93.517548 0.000000
-18.679287 93.517548 0.000000
-16.738598 93.517548 0.000000
-14.797909 93.517548 9.673389
-12.857216 93.517548 9.689554
-10.916527 93.517548 9.698377
-8.975838 93.517548 9.648319
-7.035149 93.517548 9.613716
-5.094460 93.517548 9.688306
-3.153767 93.517548 9.529058
-1.213078 93.517548 9.463007
0.727612 93.517548 9.869246
2.668304 93.517548 9.848864
4.608994 93.517548 9.939266
6.549683 93.517548 9.711900
8.490372 93.517548 9.847334
10.431061 93.517548 9.614676
12.371750 93.517548 9.808655
14.312439 93.517548 9.689063
16.253136 93.517548 9.717875
18.193825 93.517548 9.913283
20.134514 93.517548 10.101314
22.075203 93.517548 10.050141
24.015892 93.517548 10.486086
25.956581 93.517548 10.125968
27.897270 93.517548 9.983553
29.837967 93.517548 10.143497
31.778656 93.517548 10.754677
33.719345 93.517548 10.458879
35.660034 93.517548 10.466558
37.600723 93.517548 10.495749
39.541412 93.517548 10.470067
41.482101 93.517548 10.671466
43.422791 93.517548 11.056066
45.363480 93.517548 10.588088
47.304176 93.517548 10.478180
49.244865 93.517548 10.453084
51.185555 93.517548 10.718556
53.126244 93.517548 10.428581
55.066933 93.517548 10.641615
57.007622 93.517548 9.348356
58.948311 93.517548 0.000000
60.889008 93.517548 0.000000
62.829697 93.517548 0.000000
64.770386 93.517548 0.000000
66.711075 93.517548 10.764668
68.651764 93.517548 10.948565
70.592453 93.517548 10.603632
72.533142 93.517548 10.591273
74.473831 93.517548 10.632030
76.414520 93.517548 10.877639
78.355209 93.517548 10.744053
80.295898 93.517548 10.751243
82.236588 93.517548 10.934831
84.177277 93.517548 10.917171
86.117981 93.517548 10.632396
88.058670 93.517548 10.528524
89.999359 93.517548 10.546910
91.940048 93.517548 10.442262
93.880737 93.517548 10.488150
95.821426 93.517548 10.513309
97.762115 93.517548 10.606001
99.702805 93.517548 10.646552
101.643494 93.517548 10.478071
103.584183 93.517548 10.515966
105.524872 93.517548 10.343107
107.465561 93.517548 10.212766
109.406250 93.517548 10.267241
111.346939 93.517548 10.263760
113.287628 93.517548 10.225863
115.228333 93.517548 10.257263
117.169022 93.517548 10.166868
119.109711 93.517548 10.098764
121.050400 93.517548 10.110959
122.991089 93.517548 10.102967
124.931778 93.517548 10.155095
126.872467 93.517548 10.134384
128.813156 93.517548 10.055617
130.753845 93.517548 10.075032
132.694534 93.517548 10.075603
134.635223 93.517548 10.109118
136.575912 93.517548 10.077781
138.516602 93.517548 10.059637
140.457291 93.517548 0.000000
-55.552399 91.576859 10.248142
-53.611710 91.576859 9.480110
-51.671021 91.576859 9.338943
-49.730328 91.576859 9.585895
-47.789639 91.576859 9.571138
-45.848949 91.576859 9.367702
-43.908257 91.576859 9.204725
-41.967567 91.576859 9.231871
-40.026878 91.576859 9.291371
-38.086189 91.576859 0.000000
-36.145500 91.576859 0.000000
-34.204807 91.576859 0.000000
-32.264118 91.576859 0.000000
-30.323429 91.576859 0.000000
-28.382738 91.576859 0.000000
-26.442047 91.576859 0.000000
-24.501358 91.576859 0.000000
-22.560669 91.576859 0.000000
-20.619980 91.576859 0.000000
-18.679287 91.576859 0.000000
-16.738598 91.576859 0.000000
-14.797909 91.576859 9.668295
-12.857216 91.576859 9.632453
-10.916527 91.576859 9.653636
-8.975838 91.576859 9.592693
-7.035149 91.576859 9.650960
-5.094460 91.576859 9.747887
-3.153767 91.576859 9.370789
-1.213078 91.576859 9.694755
0.727612 91.576859 9.656092
2.668304 91.576859 9.907163
4.608994 91.576859 9.793157
6.549683 91.576859 9.901134
8.490372 91.576859 9.996100
10.431061 91.576859 9.959434
12.371750 91.576859 9.967435
14.312439 91.576859 10.277948
16.253136 91.576859 10.004266
18.193825 91.576859 10.095545
20.134514 91.576859 10.186596
22.075203 91.576859 10.404364
24.015892 91.576859 10.224484
25.956581 91.576859 10.285115
27.897270 91.576859 9.977203
29.837967 91.576859 10.255002
31.778656 91.576859 10.283352
33.719345 91.576859 10.205686
35.660034 91.576859 10.374820
37.600723 91.576859 10.722430
39.541412 91.576859 10.507075
41.482101 91.576859 10.583478
43.422791 91.576859 10.572622
45.363480 91.576859 10.579998
47.304176 91.576859 10.609577
49.244865 91.576859 10.789554
51.185555 91.576859 10.935163
53.126244 91.576859 10.597054
55.066933 91.576859 10.736611
57.007622 91.576859 9.892516
58.948311 91.576859 0.000000
60.889008 91.576859 0.000000
62.829697 91.576859 0.000000
64.770386 91.576859 0.000000
66.711075 91.576859 10.788609
68.651764 91.576859 10.984370
70.592453 91.576859 10.883239
72.533142 91.576859 10.844370
74.473831 91.576859 10.955193
76.414520 91.576859 10.955833
78.355209 91.576859 10.654361
80.295898 91.576859 10.834869
82.236588 91.576859 10.870058
84.177277 91.576859 10.872443
86.117981 91.576859 10.730869
88.058670 91.576859 10.562138
89.999359 91.576859 10.612143
91.940048 91.576859 10.655026
93.880737 91.576859 10.610555
95.821426 91.576859 10.606874
97.762115 91.576859 10.584602
99.702805 91.576859 10.521943
101.643494 91.576859 10.478748
103.584183 91.576859 10.500015
105.524872 91.576859 10.303764
107.465561 91.576859 10.312432
109.406250 91.576859 10.369483
111.346939 91.576859 10.343649
113.287628 91.576859 10.322672
115.228333 91.576859 10.249274
117.169022 91.576859 10.312634
119.109711 91.576859 10.332822
121.050400 91.576859 10.210016
122.991089 91.576859 10.143901
124.931778 91.576859 10.175612
126.872467 91.576859 10.122243
128.813156 91.576859 10.120578
130.753845 91.576859 10.133070
132.694534 91.576859 10.194010
134.635223 91.576859 10.131786
136.575912 91.576859 10.036095
138.516602 91.576859 10.025590
140.457291 91.576859 0.000000
-55.552399 89.636169 9.751098
-53.611710 89.636169 9.413176
-51.671021 89.636169 9.228422
-49.730328 89.636169 9.524290
-47.789639 89.636169 9.551289
-45.848949 89.636169 9.075632
-43.908257 89.636169 9.104857
-41.967567 89.636169 9.171652
-40.026878 89.636169 9.270293
-38.086189 89.636169 0.000000
-36.145500 89.636169 0.000000
-34.204807 89.636169 0.000000
-32.264118 89.636169 0.000000
-30.323429 89.636169 0.000000
-28.382738 89.636169 0.000000
-26.442047 89.636169 0.000000
-24.501358 89.636169 0.000000
-22.560669 89.636169 0.000000
-20.619980 89.636169 0.000000
-18.679287 89.636169 0.000000
-16.738598 89.636169 0.000000
-14.797909 89.636169 9.595839
-12.857216 89.636169 9.482798
-10.916527 89.636169 9.564509
-8.975838 89.636169 9.586542
-7.035149 89.636169 9.786105
-5.094460 89.636169 9.788037
-3.153767 89.636169 9.635260
-1.213078 89.636169 9.653436
0.727612 89.636169 9.768317
2.668304 89.636169 9.696168
4.608994 89.636169 9.821308
6.549683 89.636169 9.920313
8.490372 89.636169 10.042380
10.431061 89.636169 10.167830
12.371750 89.636169 10.029442
14.312439 89.636169 9.833779
16.253136 89.636169 10.029112
18.193825 89.636169 10.390458
20.134514 89.636169 10.675533
22.075203 89.636169 10.503931
24.015892 89.636169 10.212879
25.956581 89.636169 10.114987
27.897270 89.636169 10.107575
29.837967 89.636169 10.235351
31.778656 89.636169 10.341530
33.719345 89.636169 10.164019
35.660034 89.636169 10.313158
37.600723 89.636169 10.762155
39.541412 89.636169 10.649465
41.482101 89.636169 10.487645
43.422791 89.636169 10.555760
45.363480 89.636169 10.660281
47.304176 89.636169 10.700866
49.244865 89.636169 10.776500
51.185555 89.636169 10.867233
53.126244 89.636169 10.923067
55.066933 89.636169 10.896074
57.007622 89.636169 9.826756
58.948311 89.636169 0.000000
60.889008 89.636169 0.000000
62.829697 89.636169 0.000000
64.770386 89.636169 0.000000
66.711075 89.636169 10.841485
68.651764 89.636169 10.916917
70.592453 89.636169 10.897531
72.533142 89.636169 10.891471
74.473831 89.636169 11.222809
76.414520 89.636169 11.046163
78.355209 89.636169 10.803267
80.295898 89.636169 10.847656
82.236588 89.636169 10.944241
84.177277 89.636169 10.844444
86.117981 89.636169 10.765538
88.058670 89.636169 10.650176
89.999359 89.636169 10.675462
91.940048 89.636169 10.825186
93.880737 89.636169 10.792347
95.821426 89.636169 10.681108
97.762115 89.636169 10.524914
99.702805 89.636169 10.411645
101.643494 89.636169 10.455985
103.584183 89.636169 10.549154
105.524872 89.636169 10.522456
107.465561 89.636169 10.477322
109.406250 89.636169 10.399653
111.346939 89.636169 10.378460
113.287628 89.636169 10.432880
115.228333 89.636169 10.428391
117.169022 89.636169 10.406943
119.109711 89.636169 10.356561
121.050400 89.636169 10.246585
122.991089 89.636169 10.211973
124.931778 89.636169 10.182958
126.872467 89.636169 10.204498
128.813156 89.636169 10.166479
130.753845 89.636169 10.145651
132.694534 89.636169 10.096671
134.635223 89.636169 9.997168
136.575912 89.636169 10.049458
138.516602 89.636169 9.991029
140.457291 89.636169 0.000000
-55.552399 87.695480 9.033687
-53.611710 87.695480 9.073567
-51.671021 87.695480 9.281775
-49.730328 87.695480 9.326984
-47.789639 87.695480 9.412177
-45.848949 87.695480 9.123385
-43.908257 87.695480 9.141268
-41.967567 87.695480 9.132333
-40.026878 87.695480 9.222893
-38.086189 87.695480 9.340641
-36.145500 87.695480 0.000000
-34.204807 87.695480 0.000000
-32.264118 87.695480 0.000000
-30.323429 87.695480 0.000000
-28.382738 87.695480 0.000000
-26.442047 87.695480 0.000000
-24.501358 87.695480 0.000000
-22.560669 87.695480 0.000000
-20.619980 87.695480 0.000000
-18.679287 87.695480 0.000000
-16.738598 87.695480 0.000000
-14.797909 87.695480 9.605220
-12.857216 87.695480 9.622254
-10.916527 87.695480 9.579288
-8.975838 87.695480 9.640481
-7.035149 87.695480 9.730491
-5.094460 87.695480 9.692519
-3.153767 87.695480 9.778355
-1.213078 87.695480 9.735421
0.727612 87.695480 9.843085
2.668304 87.695480 9.843654
4.608994 87.695480 9.776363
6.549683 87.695480 9.807631
8.490372 87.695480 10.020469
10.431061 87.695480 10.158724
12.371750 87.695480 9.897014
14.312439 87.695480 9.888736
16.253136 87.695480 10.170993
18.193825 87.695480 10.350864
20.134514 87.695480 10.473195
22.075203 87.695480 10.439836
24.015892 87.695480 10.307862
25.956581 87.695480 10.165945
27.897270 87.695480 10.166955
29.837967 87.695480 10.274719
31.778656 87.695480 10.381421
33.719345 87.695480 10.299012
35.660034 87.695480 10.475573
37.600723 87.695480 10.700543
39.541412 87.695480 10.658864
41.482101 87.695480 10.562668
43.422791 87.695480 10.815433
45.363480 87.695480 10.764766
47.304176 87.695480 10.745173
49.244865 87.695480 10.758687
51.185555 87.695480 10.739825
53.126244 87.695480 10.812051
55.066933 87.695480 10.853591
57.007622 87.695480 10.441450
58.948311 87.695480 1.559485
60.889008 87.695480 0.000000
62.829697 87.695480 0.000000
64.770386 87.695480 0.000000
66.711075 87.695480 10.880293
68.651764 87.695480 10.928235
70.592453 87.695480 10.795134
72.533142 87.695480 10.913311
74.473831 87.695480 10.980781
76.414520 87.695480 11.082019
78.355209 87.695480 10.925514
80.295898 87.695480 10.935075
82.236588 87.695480 10.942711
84.177277 87.695480 10.845995
86.117981 87.695480 10.924525
88.058670 87.695480 10.823664
89.999359 87.695480 10.725818
91.940048 87.695480 10.793333
93.880737 87.695480 10.881879
95.821426 87.695480 10.728535
97.762115 87.695480 10.452526
99.702805 87.695480 10.285316
101.643494 87.695480 10.376053
103.584183 87.695480 10.507095
105.524872 87.695480 10.533055
107.465561 87.695480 10.367085
109.406250 87.695480 10.309036
111.346939 87.695480 10.389820
113.287628 87.695480 10.332767
115.228333 87.695480 10.378221
117.169022 87.695480 10.276118
119.109711 87.695480 10.195440
121.050400 87.695480 10.227684
122.991089 87.695480 10.249722
124.931778 87.695480 10.097140
126.872467 87.695480 10.170035
128.813156 87.695480 10.114846
130.753845 87.695480 10.064147
132.694534 87.695480 10.001825
134.635223 87.695480 9.955677
136.575912 87.695480 10.042042
138.516602 87.695480 9.965253
140.457291 87.695480 0.000000
-55.552399 85.754791 9.831050
-53.611710 85.754791 8.941541
-51.671021 85.754791 9.026905
-49.730328 85.754791 9.056265
-47.789639 85.754791 9.057261
-45.848949 85.754791 9.080503
-43.908257 85.754791 9.140790
-41.967567 85.754791 9.268025
-40.026878 85.754791 9.190040
-38.086189 85.754791 9.233974
-36.145500 85.754791 0.000000
-34.204807 85.754791 0.000000
-32.264118 85.754791 0.000000
-30.323429 85.754791 0.000000
-28.382738 85.754791 0.000000
-26.442047 85.754791 0.000000
-24.501358 85.754791 0.000000
-22.560669 85.754791 0.000000
-20.619980 85.754791 0.000000
-18.679287 85.754791 0.000000
-16.738598 85.754791 0.000000
-14.797909 85.754791 9.643583
-12.857216 85.754791 9.710711
-10.916527 85.754791 9.639799
-8.975838 85.754791 9.719416
-7.035149 85.754791 9.823667
-5.094460 85.754791 9.876122
-3.153767 85.754791 9.791137
-1.213078 85.754791 9.845872
0.727612 85.754791 9.895652
2.668304 85.754791 9.868617
4.608994 85.754791 9.804081
6.549683 85.754791 9.799703
8.490372 85.754791 10.010386
10.431061 85.754791 10.043557
12.371750 85.754791 9.863167
14.312439 85.754791 10.010801
16.253136 85.754791 10.306055
18.193825 85.754791 10.275612
20.134514 85.754791 10.239796
22.075203 85.754791 10.270220
24.015892 85.754791 10.143946
25.956581 85.754791 10.224637
27.897270 85.754791 10.240259
29.837967 85.754791 10.352995
31.778656 85.754791 10.466259
33.719345 85.754791 10.359465
35.660034 85.754791 10.395767
37.600723 85.754791 10.593450
39.541412 85.754791 10.593834
41.482101 85.754791 10.587842
43.422791 85.754791 10.779660
45.363480 85.754791 10.837873
47.304176 85.754791 10.755851
49.244865 85.754791 10.724207
51.185555 85.754791 10.708868
53.126244 85.754791 10.812411
55.066933 85.754791 10.898909
57.007622 85.754791 10.833527
58.948311 85.754791 10.120038
60.889008 85.754791 0.000000
62.829697 85.754791 0.000000
64.770386 85.754791 0.000000
66.711075 85.754791 11.003749
68.651764 85.754791 10.978431
70.592453 85.754791 10.807124
72.533142 85.754791 10.770797
74.473831 85.754791 10.929694
76.414520 85.754791 10.956429
78.355209 85.754791 10.920871
80.295898 85.754791 10.817780
82.236588 85.754791 10.837509
84.177277 85.754791 10.918541