TITLE = "B00002"
VARIABLES = "position", "position(2)", "Vx", "Vy"
ZONE T="Frame 0", I=102, J=78
-55.552357 103.220658 0.000000 0.000000
-53.611669 103.220658 9.294002 -0.482833
-51.670981 103.220658 9.795523 0.612500
-49.730293 103.220658 10.112130 0.693196
-47.789605 103.220658 10.188045 -1.116280
-45.848917 103.220658 10.232494 -0.533322
-43.908229 103.220658 11.512683 0.816898
-41.967541 103.220658 9.593969 0.715186
-40.026853 103.220658 7.872223 -0.211093
-38.086165 103.220658 0.000000 0.000000
-36.145477 103.220658 0.000000 0.000000
-34.204789 103.220658 0.000000 0.000000
-32.264101 103.220658 0.000000 0.000000
-30.323413 103.220658 0.000000 0.000000
-28.382725 103.220658 0.000000 0.000000
-26.442037 103.220658 0.000000 0.000000
-24.501349 103.220658 0.000000 0.000000
-22.560661 103.220658 0.000000 0.000000
-20.619973 103.220658 0.000000 0.000000
-18.679285 103.220658 0.000000 0.000000
-16.738597 103.220658 0.000000 0.000000
-14.797909 103.220658 9.585534 0.195785
-12.857221 103.220658 9.816913 0.884939
-10.916533 103.220658 9.645814 0.831249
-8.975845 103.220658 9.785568 0.942496
-7.035157 103.220658 9.224812 0.884818
-5.094469 103.220658 8.085208 -0.302393
-3.153781 103.220658 8.370369 -0.443596
-1.213093 103.220658 8.688555 0.117182
0.727595 103.220658 8.714970 0.544968
2.668283 103.220658 9.615095 0.938903
4.608971 103.220658 10.377172 0.854194
6.549659 103.220658 11.359180 -0.421063
8.490347 103.220658 10.711668 -0.805029
10.431035 103.220658 9.637156 -0.032875
12.371723 103.220658 9.721513 0.460248
14.312411 103.220658 10.703281 0.983402
16.253099 103.220658 10.421780 0.910336
18.193787 103.220658 0.000000 0.000000
20.134475 103.220658 10.874277 0.800685
22.075163 103.220658 11.051743 -0.204559
24.015851 103.220658 10.379166 0.524074
25.956539 103.220658 10.183734 1.103111
27.897227 103.220658 10.304417 1.350093
29.837915 103.220658 9.695734 0.693942
31.778603 103.220658 9.767278 1.162465
33.719291 103.220658 9.141216 1.161916
35.659979 103.220658 8.921640 -0.965708
37.600667 103.220658 9.867957 1.030202
39.541355 103.220658 10.085508 -0.065579
41.482043 103.220658 10.136521 -1.645000
43.422731 103.220658 0.000000 0.000000
45.363419 103.220658 8.920043 1.859326
47.304107 103.220658 8.920300 3.075897
49.244796 103.220658 9.205249 2.790179
51.185484 103.220658 9.437206 1.343767
53.126172 103.220658 9.299983 0.863537
55.066860 103.220658 9.508830 0.416075
57.007548 103.220658 8.812952 2.553766
58.948236 103.220658 0.000000 0.000000
60.888924 103.220658 0.000000 0.000000
62.829612 103.220658 0.000000 0.000000
64.770300 103.220658 0.000000 0.000000
66.710988 103.220658 0.000000 0.000000
68.651676 103.220658 0.000000 0.000000
70.592364 103.220658 8.765594 -0.022324
72.533052 103.220658 9.799349 0.008737
74.473740 103.220658 9.983873 -0.676698
76.414428 103.220658 10.224251 -1.019390
78.355116 103.220658 9.770721 -0.221530
80.295804 103.220658 9.096160 0.246600
82.236492 103.220658 9.707633 0.280974
84.177180 103.220658 10.014852 0.125556
86.117868 103.220658 9.871523 0.021865
88.058556 103.220658 9.894217 -0.063186
89.999244 103.220658 10.172450 0.150945
91.939932 103.220658 9.760086 0.405220
93.880620 103.220658 9.491340 0.622104
95.821308 103.220658 9.147741 0.394313
97.761996 103.220658 9.212820 -0.007419
99.702684 103.220658 10.048199 0.310117
101.643372 103.220658 10.437973 0.622888
103.584060 103.220658 10.399670 0.480408
105.524748 103.220658 10.897484 -0.499718
107.465436 103.220658 9.469260 0.825948
109.406124 103.220658 9.851663 0.444912
111.346812 103.220658 10.444304 -0.211776
113.287500 103.220658 10.377893 0.306997
115.228188 103.220658 10.198957 1.265205
117.168876 103.220658 10.165792 2.132426
119.109564 103.220658 9.715581 0.457682
121.050252 103.220658 9.306643 -0.193873
122.990940 103.220658 8.593843 -0.274012
124.931628 103.220658 7.855084 -0.125779
126.872316 103.220658 7.640840 -0.512083
128.813004 103.220658 9.127394 0.270956
130.753692 103.220658 9.953610 0.437421
132.694380 103.220658 10.624311 0.314061
134.635068 103.220658 11.212342 0.584257
136.575756 103.220658 10.088625 0.388497
138.516444 103.220658 9.664981 0.454662
140.457132 103.220658 0.000000 0.000000
-55.552357 101.279970 11.175136 -0.372071
-53.611669 101.279970 10.582086 1.298416
-51.670981 101.279970 9.086091 1.050474
-49.730293 101.279970 10.227375 0.702269
-47.789605 101.279970 10.014629 -1.173559
-45.848917 101.279970 10.019853 -0.777735
-43.908229 101.279970 9.816123 0.808731
-41.967541 101.279970 8.893317 0.238660
-40.026853 101.279970 8.437068 -0.048378
-38.086165 101.279970 0.000000 0.000000
-36.145477 101.279970 0.000000 0.000000
-34.204789 101.279970 0.000000 0.000000
-32.264101 101.279970 0.000000 0.000000
-30.323413 101.279970 0.000000 0.000000
-28.382725 101.279970 0.000000 0.000000
-26.442037 101.279970 0.000000 0.000000
-24.501349 101.279970 0.000000 0.000000
-22.560661 101.279970 0.000000 0.000000
-20.619973 101.279970 0.000000 0.000000
-18.679285 101.279970 0.000000 0.000000
-16.738597 101.279970 9.462716 -0.149438
-14.797909 101.279970 9.483932 0.019074
-12.857221 101.279970 9.598790 0.352411
-10.916533 101.279970 9.641952 0.417599
-8.975845 101.279970 10.066878 0.555824
-7.035157 101.279970 9.744344 0.398684
-5.094469 101.279970 9.046052 0.086105
-3.153781 101.279970 8.444180 -0.312127
-1.213093 101.279970 8.655911 -0.146645
0.727595 101.279970 8.850074 0.640357
2.668283 101.279970 8.535273 1.617505
4.608971 101.279970 9.559779 0.918553
6.549659 101.279970 11.212477 0.135528
8.490347 101.279970 11.310390 0.424945
10.431035 101.279970 8.756699 1.367259
12.371723 101.279970 8.976353 0.979620
14.312411 101.279970 9.396940 1.384641
16.253099 101.279970 10.372768 0.259761
18.193787 101.279970 10.048875 -1.031050
20.134475 101.279970 10.144770 -0.950183
22.075163 101.279970 10.186646 0.323004
24.015851 101.279970 9.285994 0.566110
25.956539 101.279970 9.361420 1.361949
27.897227 101.279970 10.227077 1.520118
29.837915 101.279970 10.876799 0.098206
31.778603 101.279970 9.763840 -0.174995
33.719291 101.279970 10.024555 0.313253
35.659979 101.279970 9.273120 -1.156179
37.600667 101.279970 10.466349 0.094814
39.541355 101.279970 9.931879 -0.042142
41.482043 101.279970 8.810849 0.368888
43.422731 101.279970 8.925390 0.852203
45.363419 101.279970 9.412046 1.346372
47.304107 101.279970 10.442066 0.129635
49.244796 101.279970 9.260139 1.737038
51.185484 101.279970 9.318677 1.217961
53.126172 101.279970 9.174763 0.784330
55.066860 101.279970 9.559050 0.153509
57.007548 101.279970 9.275801 0.892533
58.948236 101.279970 0.000000 0.000000
60.888924 101.279970 0.000000 0.000000
62.829612 101.279970 0.000000 0.000000
64.770300 101.279970 0.000000 0.000000
66.710988 101.279970 0.000000 0.000000
68.651676 101.279970 0.000000 0.000000
70.592364 101.279970 9.493121 -0.187306
72.533052 101.279970 9.656246 0.086916
74.473740 101.279970 9.921734 -0.384462
76.414428 101.279970 9.867622 -0.325857
78.355116 101.279970 9.693884 0.563681
80.295804 101.279970 9.284796 0.556787
82.236492 101.279970 9.524688 0.359387
84.177180 101.279970 9.731911 0.166945
86.117868 101.279970 9.614329 -0.029605
88.058556 101.279970 9.628492 -0.100806
89.999244 101.279970 9.969040 0.013546
91.939932 101.279970 10.191448 0.427722
93.880620 101.279970 9.711166 0.614528
95.821308 101.279970 9.418376 0.302498
97.761996 101.279970 9.577650 0.173781
99.702684 101.279970 10.068840 0.307195
101.643372 101.279970 10.664804 0.276680
103.584060 101.279970 10.499355 0.351978
105.524748 101.279970 8.921467 -0.129495
107.465436 101.279970 9.147708 0.639421
109.406124 101.279970 9.930758 0.510039
111.346812 101.279970 10.298414 0.272752
113.287500 101.279970 9.937994 0.516091
115.228188 101.279970 9.648459 0.885179
117.168876 101.279970 9.571089 1.365018
119.109564 101.279970 9.648359 0.521469
121.050252 101.279970 9.281857 -0.114158
122.990940 101.279970 9.013927 -0.025029
124.931628 101.279970 9.018363 -0.411491
126.872316 101.279970 8.814556 -0.306464
128.813004 101.279970 9.675519 0.035459
130.753692 101.279970 9.944020 -0.123581
132.694380 101.279970 10.339576 0.274097
134.635068 101.279970 10.859622 0.577884
136.575756 101.279970 10.224101 0.431262
138.516444 101.279970 9.690358 0.398562
140.457132 101.279970 0.000000 0.000000
-55.552357 99.339282 10.829201 -0.992611
-53.611669 99.339282 9.436795 0.457906
-51.670981 99.339282 8.635062 0.728723
-49.730293 99.339282 9.538265 0.603407
-47.789605 99.339282 10.024199 -0.679482
-45.848917 99.339282 10.374358 0.174754
-43.908229 99.339282 9.972971 -0.098266
-41.967541 99.339282 9.495080 -0.317934
-40.026853 99.339282 9.442776 0.006222
-38.086165 99.339282 11.351124 -2.353861
-36.145477 99.339282 0.000000 0.000000
-34.204789 99.339282 0.000000 0.000000
-32.264101 99.339282 0.000000 0.000000
-30.323413 99.339282 0.000000 0.000000
-28.382725 99.339282 0.000000 0.000000
-26.442037 99.339282 0.000000 0.000000
-24.501349 99.339282 0.000000 0.000000
-22.560661 99.339282 0.000000 0.000000
-20.619973 99.339282 0.000000 0.000000
-18.679285 99.339282 0.000000 0.000000
-16.738597 99.339282 9.769086 0.304469
-14.797909 99.339282 9.324643 0.082127
-12.857221 99.339282 9.378681 -0.223047
-10.916533 99.339282 9.733130 -0.217247
-8.975845 99.339282 9.755166 -0.179467
-7.035157 99.339282 9.889321 0.141061
-5.094469 99.339282 9.946451 0.294744
-3.153781 99.339282 9.294724 0.238464
-1.213093 99.339282 9.456985 0.172484
0.727595 99.339282 9.394013 0.767627
2.668283 99.339282 9.155746 1.958572
4.608971 99.339282 8.772295 0.584484
6.549659 99.339282 11.405062 -0.155836
8.490347 99.339282 11.099154 -0.055399
10.431035 99.339282 9.259130 0.203498
12.371723 99.339282 9.180507 0.862521
14.312411 99.339282 10.935719 1.147013
16.253099 99.339282 10.574489 -1.437541
18.193787 99.339282 10.423843 -0.120633
20.134475 99.339282 8.564506 0.468679
22.075163 99.339282 8.980988 -0.635846
24.015851 99.339282 8.654119 0.717945
25.956539 99.339282 8.775386 1.215904
27.897227 99.339282 9.578708 1.072125
29.837915 99.339282 10.476284 -0.662863
31.778603 99.339282 10.548748 -0.587012
33.719291 99.339282 10.834930 -0.033365
35.659979 99.339282 11.454157 -0.611498
37.600667 99.339282 11.000961 -0.311860
39.541355 99.339282 9.882957 0.615767
41.482043 99.339282 9.484735 0.965519
43.422731 99.339282 9.821680 0.835698
45.363419 99.339282 9.827782 0.322052
47.304107 99.339282 9.173844 0.008972
49.244796 99.339282 0.000000 0.000000
51.185484 99.339282 0.000000 0.000000
53.126172 99.339282 9.500025 0.288852
55.066860 99.339282 9.595539 -0.304732
57.007548 99.339282 0.000000 0.000000
58.948236 99.339282 0.000000 0.000000
60.888924 99.339282 0.000000 0.000000
62.829612 99.339282 0.000000 0.000000
64.770300 99.339282 0.000000 0.000000
66.710988 99.339282 0.000000 0.000000
68.651676 99.339282 0.000000 0.000000
70.592364 99.339282 10.075390 -0.232613
72.533052 99.339282 9.492077 -0.325957
74.473740 99.339282 9.849760 0.014674
76.414428 99.339282 9.993720 0.643686
78.355116 99.339282 9.807676 1.205221
80.295804 99.339282 9.351632 0.773213
82.236492 99.339282 9.035852 0.398523
84.177180 99.339282 9.097519 0.283745
86.117868 99.339282 9.070694 0.269201
88.058556 99.339282 8.962321 -0.257456
89.999244 99.339282 9.626821 -0.141829
91.939932 99.339282 9.804938 0.193666
93.880620 99.339282 9.551831 0.304365
95.821308 99.339282 9.918101 -0.256614
97.761996 99.339282 9.909063 -0.422384
99.702684 99.339282 10.209446 -0.251597
101.643372 99.339282 10.966478 -0.559363
103.584060 99.339282 10.920156 0.279653
105.524748 99.339282 9.480227 0.669453
107.465436 99.339282 9.028849 0.689473
109.406124 99.339282 9.513779 0.513562
111.346812 99.339282 9.866329 0.256790
113.287500 99.339282 9.642694 0.168738
115.228188 99.339282 9.583248 0.482516
117.168876 99.339282 9.740122 0.185865
119.109564 99.339282 9.812113 -0.122773
121.050252 99.339282 9.413918 0.039537
122.990940 99.339282 9.448642 0.381622
124.931628 99.339282 10.040189 0.153675
126.872316 99.339282 9.768769 -0.732126
128.813004 99.339282 9.351742 -0.492645
130.753692 99.339282 9.808035 0.058570
132.694380 99.339282 10.164904 0.424755
134.635068 99.339282 10.200251 0.539787
136.575756 99.339282 10.061763 0.382369
138.516444 99.339282 9.594637 0.418344
140.457132 99.339282 0.000000 0.000000
-55.552357 97.398594 0.000000 0.000000
-53.611669 97.398594 0.000000 0.000000
-51.670981 97.398594 8.871040 0.411874
-49.730293 97.398594 8.959790 0.742882
-47.789605 97.398594 9.215276 0.915962
-45.848917 97.398594 10.749146 0.276015
-43.908229 97.398594 10.333549 -0.243171
-41.967541 97.398594 9.894165 -1.111902
-40.026853 97.398594 9.863087 -0.616933
-38.086165 97.398594 10.052890 0.682508
-36.145477 97.398594 0.000000 0.000000
-34.204789 97.398594 0.000000 0.000000
-32.264101 97.398594 0.000000 0.000000
-30.323413 97.398594 0.000000 0.000000
-28.382725 97.398594 0.000000 0.000000
-26.442037 97.398594 0.000000 0.000000
-24.501349 97.398594 0.000000 0.000000
-22.560661 97.398594 0.000000 0.000000
-20.619973 97.398594 0.000000 0.000000
-18.679285 97.398594 0.000000 0.000000
-16.738597 97.398594 9.891422 0.622087
-14.797909 97.398594 9.348979 0.332378
-12.857221 97.398594 9.472379 -0.210281
-10.916533 97.398594 9.807262 -0.520541
-8.975845 97.398594 9.432782 -0.281180
-7.035157 97.398594 9.469752 0.046120
-5.094469 97.398594 9.141316 0.008987
-3.153781 97.398594 9.368097 0.666204
-1.213093 97.398594 10.372624 0.692312
0.727595 97.398594 9.915622 0.036727
2.668283 97.398594 9.898341 0.533410
4.608971 97.398594 10.876489 0.480818
6.549659 97.398594 11.098899 -0.018405
8.490347 97.398594 10.574371 -0.379528
10.431035 97.398594 9.840504 -0.076653
12.371723 97.398594 10.543568 -0.310469
14.312411 97.398594 10.935351 0.113785
16.253099 97.398594 12.146947 -0.698230
18.193787 97.398594 10.104624 0.638655
20.134475 97.398594 9.149153 0.668178
22.075163 97.398594 9.420015 0.141520
24.015851 97.398594 9.113595 0.982315
25.956539 97.398594 8.925316 1.631503
27.897227 97.398594 9.168790 0.868945
29.837915 97.398594 9.658360 -0.319695
31.778603 97.398594 10.522366 1.586725
33.719291 97.398594 10.489420 0.375654
35.659979 97.398594 11.400743 -0.238859
37.600667 97.398594 11.367933 0.099925
39.541355 97.398594 9.984400 2.166383
41.482043 97.398594 9.712564 2.642101
43.422731 97.398594 10.588332 0.376372
45.363419 97.398594 10.131412 0.768336
47.304107 97.398594 9.877457 0.181708
49.244796 97.398594 10.931427 -1.042602
51.185484 97.398594 0.000000 0.000000
53.126172 97.398594 10.477983 0.308334
55.066860 97.398594 10.484547 -0.251710
57.007548 97.398594 9.674145 -1.074231
58.948236 97.398594 0.000000 0.000000
60.888924 97.398594 0.000000 0.000000
62.829612 97.398594 0.000000 0.000000
64.770300 97.398594 0.000000 0.000000
66.710988 97.398594 0.000000 0.000000
68.651676 97.398594 0.000000 0.000000
70.592364 97.398594 9.203493 -0.188521
72.533052 97.398594 9.747588 0.151499
74.473740 97.398594 9.906608 0.699435
76.414428 97.398594 10.283167 1.061132
78.355116 97.398594 9.870103 0.524477
80.295804 97.398594 9.639139 0.189667
82.236492 97.398594 9.658178 0.043791
84.177180 97.398594 9.586478 -0.118074
86.117868 97.398594 9.149375 0.505900
88.058556 97.398594 8.841867 -0.134564
89.999244 97.398594 9.627866 -0.124664
91.939932 97.398594 9.572616 0.200970
93.880620 97.398594 9.161014 -0.625179
95.821308 97.398594 9.434240 -0.373905
97.761996 97.398594 9.479383 -0.611931
99.702684 97.398594 10.112001 -0.383401
101.643372 97.398594 10.186336 0.054503
103.584060 97.398594 9.794779 0.080250
105.524748 97.398594 10.029650 0.616114
107.465436 97.398594 9.249064 0.915157
109.406124 97.398594 9.184482 0.238725
111.346812 97.398594 9.380798 -0.336328
113.287500 97.398594 9.545318 -0.287391
115.228188 97.398594 9.771805 0.215988
117.168876 97.398594 9.935617 0.188032
119.109564 97.398594 9.797688 -0.003034
121.050252 97.398594 9.461300 0.196817
122.990940 97.398594 9.601716 0.431970
124.931628 97.398594 10.280390 0.239320
126.872316 97.398594 9.746148 0.394458
128.813004 97.398594 9.466957 0.443779
130.753692 97.398594 9.673962 0.332572
132.694380 97.398594 10.015095 0.479894
134.635068 97.398594 10.160144 0.395883
136.575756 97.398594 10.051423 0.144623
138.516444 97.398594 9.525238 0.165334
140.457132 97.398594 0.000000 0.000000
-55.552357 95.457906 0.000000 0.000000
-53.611669 95.457906 0.000000 0.000000
-51.670981 95.457906 8.420664 0.049009
-49.730293 95.457906 8.518836 0.394852
-47.789605 95.457906 8.955118 0.495034
-45.848917 95.457906 9.884628 -0.099187
-43.908229 95.457906 10.590104 -0.684004
-41.967541 95.457906 9.892626 -0.746503
-40.026853 95.457906 9.637940 -0.124647
-38.086165 95.457906 9.578552 0.109468
-36.145477 95.457906 0.000000 0.000000
-34.204789 95.457906 0.000000 0.000000
-32.264101 95.457906 0.000000 0.000000
-30.323413 95.457906 0.000000 0.000000
-28.382725 95.457906 0.000000 0.000000
-26.442037 95.457906 0.000000 0.000000
-24.501349 95.457906 0.000000 0.000000
-22.560661 95.457906 0.000000 0.000000
-20.619973 95.457906 0.000000 0.000000
-18.679285 95.457906 0.000000 0.000000
-16.738597 95.457906 9.594775 0.458990
-14.797909 95.457906 9.349457 0.369805
-12.857221 95.457906 9.515338 -0.016376
-10.916533 95.457906 9.838626 -0.230548
-8.975845 95.457906 9.659966 -0.016739
-7.035157 95.457906 9.102916 0.661760
-5.094469 95.457906 8.318748 0.668364
-3.153781 95.457906 9.518216 0.566457
-1.213093 95.457906 9.721090 -0.427300
0.727595 95.457906 10.058398 -0.944212
2.668283 95.457906 10.396426 0.061721
4.608971 95.457906 10.030752 1.113440
6.549659 95.457906 9.953289 1.459754
8.490347 95.457906 10.620596 0.987642
10.431035 95.457906 10.381516 -0.052309
12.371723 95.457906 10.064137 -0.279330
14.312411 95.457906 10.000430 0.656501
16.253099 95.457906 0.000000 0.000000
18.193787 95.457906 0.000000 0.000000
20.134475 95.457906 8.897217 0.514165
22.075163 95.457906 11.070729 0.122394
24.015851 95.457906 9.392687 1.653690
25.956539 95.457906 8.595070 1.851852
27.897227 95.457906 8.887932 0.973389
29.837915 95.457906 9.794464 0.341874
31.778603 95.457906 10.356108 0.307310
33.719291 95.457906 9.660796 0.330627
35.659979 95.457906 10.721437 0.549387
37.600667 95.457906 11.217447 0.324385
39.541355 95.457906 9.627491 2.918355
41.482043 95.457906 9.831292 2.672125
43.422731 95.457906 10.237755 1.128030
45.363419 95.457906 10.224269 0.709221
47.304107 95.457906 10.124972 0.278756
49.244796 95.457906 9.787942 -0.209984
51.185484 95.457906 9.555477 0.780087
53.126172 95.457906 9.981657 1.310875
55.066860 95.457906 11.084339 0.030348
57.007548 95.457906 10.096022 0.149073
58.948236 95.457906 10.097715 0.289399
60.888924 95.457906 0.000000 0.000000
62.829612 95.457906 0.000000 0.000000
64.770300 95.457906 0.000000 0.000000
66.710988 95.457906 0.000000 0.000000
68.651676 95.457906 0.000000 0.000000
70.592364 95.457906 9.387627 -0.484844
72.533052 95.457906 10.121251 -0.433537
74.473740 95.457906 10.373091 0.244917
76.414428 95.457906 10.423028 0.761565
78.355116 95.457906 10.387097 -0.253826
80.295804 95.457906 10.293099 -0.341172
82.236492 95.457906 10.292629 -0.328969
84.177180 95.457906 9.913134 -0.273257
86.117868 95.457906 9.421983 0.149880
88.058556 95.457906 9.530178 -0.157886
89.999244 95.457906 9.634464 -0.118146
91.939932 95.457906 9.622050 0.138707
93.880620 95.457906 9.250218 0.869168
95.821308 95.457906 9.147536 0.203014
97.761996 95.457906 9.126061 -0.104771
99.702684 95.457906 9.513811 0.286290
101.643372 95.457906 9.610168 0.408083
103.584060 95.457906 9.692102 0.170456
105.524748 95.457906 10.168390 0.391032
107.465436 95.457906 10.002298 0.602472
109.406124 95.457906 9.643675 -0.072921
111.346812 95.457906 9.521762 -0.544732
113.287500 95.457906 9.698359 0.054001
115.228188 95.457906 9.809198 0.233779
117.168876 95.457906 9.756139 0.429393
119.109564 95.457906 9.808362 0.484040
121.050252 95.457906 9.487529 0.104549
122.990940 95.457906 9.625404 0.003654
124.931628 95.457906 10.121646 0.049444
126.872316 95.457906 9.896275 0.661319
128.813004 95.457906 9.605816 0.801019
130.753692 95.457906 9.629595 0.387796
132.694380 95.457906 9.788107 0.458988
134.635068 95.457906 9.953059 0.449508
136.575756 95.457906 9.980512 0.179333
138.516444 95.457906 9.735089 0.176495
140.457132 95.457906 0.000000 0.000000
-55.552357 93.517218 0.000000 0.000000
-53.611669 93.517218 0.000000 0.000000
-51.670981 93.517218 9.003148 0.487370
-49.730293 93.517218 9.233811 0.602328
-47.789605 93.517218 9.181069 0.491846
-45.848917 93.517218 9.771420 -0.011038
-43.908229 93.517218 10.500056 -0.684815
-41.967541 93.517218 10.012409 -0.507591
-40.026853 93.517218 9.579757 -0.089189
-38.086165 93.517218 9.545682 0.063402
-36.145477 93.517218 0.000000 0.000000
-34.204789 93.517218 0.000000 0.000000
-32.264101 93.517218 0.000000 0.000000
-30.323413 93.517218 0.000000 0.000000
-28.382725 93.517218 0.000000 0.000000
-26.442037 93.517218 0.000000 0.000000
-24.501349 93.517218 0.000000 0.000000
-22.560661 93.517218 0.000000 0.000000
-20.619973 93.517218 0.000000 0.000000
-18.679285 93.517218 0.000000 0.000000
-16.738597 93.517218 9.447561 0.458723
-14.797909 93.517218 9.533041 0.283602
-12.857221 93.517218 9.419360 0.146780
-10.916533 93.517218 9.978715 0.388751
-8.975845 93.517218 9.939898 0.855784
-7.035157 93.517218 9.337440 1.159368
-5.094469 93.517218 8.910371 1.043020
-3.153781 93.517218 10.002093 0.305921
-1.213093 93.517218 10.445562 -0.744418
0.727595 93.517218 10.841348 -0.891603
2.668283 93.517218 11.181917 1.113884
4.608971 93.517218 9.593588 0.978615
6.549659 93.517218 9.834785 1.804495
8.490347 93.517218 9.950482 1.164008
10.431035 93.517218 10.058371 -0.586137
12.371723 93.517218 9.982643 -0.630470
14.312411 93.517218 10.339138 -0.866196
16.253099 93.517218 10.357899 -1.593460
18.193787 93.517218 10.216798 -1.305536
20.134475 93.517218 9.143545 -0.128310
22.075163 93.517218 8.468759 0.129530
24.015851 93.517218 10.077124 0.786406
25.956539 93.517218 9.601726 0.888253
27.897227 93.517218 9.401637 0.666000
29.837915 93.517218 10.034410 0.206160
31.778603 93.517218 10.229349 -0.337234
33.719291 93.517218 9.546849 -0.221786
35.659979 93.517218 10.231585 0.229587
37.600667 93.517218 9.976721 0.694300
39.541355 93.517218 9.532571 0.762522
41.482043 93.517218 9.845778 -1.445740
43.422731 93.517218 10.131093 0.918819
45.363419 93.517218 10.011438 0.655469
47.304107 93.517218 9.813584 0.656336
49.244796 93.517218 9.498829 0.268458
51.185484 93.517218 9.428426 0.387863
53.126172 93.517218 9.241208 -0.073049
55.066860 93.517218 10.500197 1.324978
57.007548 93.517218 10.266230 1.119692
58.948236 93.517218 0.000000 0.000000
60.888924 93.517218 0.000000 0.000000
62.829612 93.517218 0.000000 0.000000
64.770300 93.517218 0.000000 0.000000
66.710988 93.517218 0.000000 0.000000
68.651676 93.517218 0.000000 0.000000
70.592364 93.517218 9.811734 -0.499891
72.533052 93.517218 10.147492 -0.762329
74.473740 93.517218 10.420443 -0.481070
76.414428 93.517218 10.725183 -0.066184
78.355116 93.517218 10.382286 -0.470366
80.295804 93.517218 10.218554 -0.822635
82.236492 93.517218 10.169426 -0.415803
84.177180 93.517218 9.685909 -0.054718
86.117868 93.517218 9.513686 0.031271
88.058556 93.517218 9.809067 0.300441
89.999244 93.517218 9.859016 -0.065248
91.939932 93.517218 9.566419 -0.069694
93.880620 93.517218 10.601721 0.083253
95.821308 93.517218 9.809428 0.070481
97.761996 93.517218 9.610347 0.368047
99.702684 93.517218 9.784156 0.508079
101.643372 93.517218 9.705529 0.397440
103.584060 93.517218 9.894623 0.179489
105.524748 93.517218 10.147783 -0.134404
107.465436 93.517218 10.182250 0.028477
109.406124 93.517218 9.811817 0.360914
111.346812 93.517218 9.601274 0.181741
113.287500 93.517218 9.676728 0.186615
115.228188 93.517218 9.846416 0.336292
117.168876 93.517218 10.066449 0.344833
119.109564 93.517218 10.049353 0.362251
121.050252 93.517218 9.917998 -0.138519
122.990940 93.517218 9.886317 -0.479423
124.931628 93.517218 9.836289 0.407322
126.872316 93.517218 9.923808 0.795604
128.813004 93.517218 9.629827 0.573907
130.753692 93.517218 9.526355 0.099964
132.694380 93.517218 9.677441 0.431836
134.635068 93.517218 9.640142 0.880188
136.575756 93.517218 9.646581 0.585889
138.516444 93.517218 9.775563 0.367163
140.457132 93.517218 0.000000 0.000000
-55.552357 91.576530 0.000000 0.000000
-53.611669 91.576530 0.000000 0.000000
-51.670981 91.576530 9.630610 1.310005
-49.730293 91.576530 9.633428 0.843365
-47.789605 91.576530 9.766396 0.094173
-45.848917 91.576530 10.159140 -0.474222
-43.908229 91.576530 10.635308 -0.674868
-41.967541 91.576530 10.037810 -0.635473
-40.026853 91.576530 9.701854 -0.331540
-38.086165 91.576530 9.927079 -0.285570
-36.145477 91.576530 0.000000 0.000000
-34.204789 91.576530 0.000000 0.000000
-32.264101 91.576530 0.000000 0.000000
-30.323413 91.576530 0.000000 0.000000
-28.382725 91.576530 0.000000 0.000000
-26.442037 91.576530 0.000000 0.000000
-24.501349 91.576530 0.000000 0.000000
-22.560661 91.576530 0.000000 0.000000
-20.619973 91.576530 0.000000 0.000000
-18.679285 91.576530 0.000000 0.000000
-16.738597 91.576530 9.890864 0.361093
-14.797909 91.576530 9.811283 0.121655
-12.857221 91.576530 9.758065 0.417401
-10.916533 91.576530 9.687014 1.041029
-8.975845 91.576530 9.552835 1.333371
-7.035157 91.576530 9.668633 1.160419
-5.094469 91.576530 9.104690 1.172463
-3.153781 91.576530 10.169720 0.456599
-1.213093 91.576530 10.786997 -0.336362
0.727595 91.576530 10.735638 -0.497380
2.668283 91.576530 10.127741 -0.237732
4.608971 91.576530 9.837062 0.586401
6.549659 91.576530 9.666353 0.757091
8.490347 91.576530 9.509003 0.717373
10.431035 91.576530 9.589962 0.375627
12.371723 91.576530 9.938184 0.080750
14.312411 91.576530 10.325792 0.200415
16.253099 91.576530 10.222122 0.087999
18.193787 91.576530 10.224073 -0.726940
20.134475 91.576530 9.536707 -0.219071
22.075163 91.576530 9.144667 0.217686
24.015851 91.576530 9.700514 0.201752
25.956539 91.576530 9.815880 0.447993
27.897227 91.576530 9.916323 0.373626
29.837915 91.576530 10.267946 -0.248727
31.778603 91.576530 9.822680 -1.592634
33.719291 91.576530 9.669615 -0.986355
35.659979 91.576530 9.920427 -0.187551
37.600667 91.576530 9.755461 0.070626
39.541355 91.576530 9.669072 0.137755
41.482043 91.576530 9.795828 0.271154
43.422731 91.576530 10.201351 0.631003
45.363419 91.576530 9.856090 0.988134
47.304107 91.576530 9.242208 0.788844
49.244796 91.576530 9.414013 0.449784
51.185484 91.576530 9.995742 0.187307
53.126172 91.576530 10.869432 0.150284
55.066860 91.576530 11.057896 0.293599
57.007548 91.576530 8.703048 0.081535
58.948236 91.576530 8.526572 0.483126
60.888924 91.576530 0.000000 0.000000
62.829612 91.576530 0.000000 0.000000
64.770300 91.576530 0.000000 0.000000
66.710988 91.576530 0.000000 0.000000
68.651676 91.576530 9.987008 -0.054993
70.592364 91.576530 9.528809 0.014234
72.533052 91.576530 9.827598 -0.295256
74.473740 91.576530 9.852471 -0.422452
76.414428 91.576530 10.226408 0.069972
78.355116 91.576530 9.855703 -0.291923
80.295804 91.576530 10.246303 -0.934285
82.236492 91.576530 10.738005 -0.409628
84.177180 91.576530 9.885680 0.153748
86.117868 91.576530 9.701713 0.069852
88.058556 91.576530 10.310078 0.465984
89.999244 91.576530 10.168165 0.152033
91.939932 91.576530 9.542861 -0.209794
93.880620 91.576530 10.635016 -0.297390
95.821308 91.576530 10.216410 0.104233
97.761996 91.576530 10.130836 0.448137
99.702684 91.576530 10.477654 0.417289
101.643372 91.576530 9.999857 0.598999
103.584060 91.576530 9.416485 0.133153
105.524748 91.576530 9.696651 -0.599731
107.465436 91.576530 9.870072 -0.317678
109.406124 91.576530 9.626356 0.252922
111.346812 91.576530 9.641541 0.499285
113.287500 91.576530 9.622148 0.451783
115.228188 91.576530 9.866449 0.117025
117.168876 91.576530 10.184756 0.130596
119.109564 91.576530 10.045579 0.422540
121.050252 91.576530 10.576761 0.388014
122.990940 91.576530 10.448471 0.220482
124.931628 91.576530 9.750624 0.581393
126.872316 91.576530 10.071027 0.801718
128.813004 91.576530 10.048233 0.191425
130.753692 91.576530 9.561687 -0.226365
132.694380 91.576530 9.706881 -0.034158
134.635068 91.576530 9.710422 0.579076
136.575756 91.576530 9.778187 0.737837
138.516444 91.576530 9.636061 0.948535
140.457132 91.576530 0.000000 0.000000
-55.552357 89.635842 0.000000 0.000000
-53.611669 89.635842 0.000000 0.000000
-51.670981 89.635842 9.511216 0.952480
-49.730293 89.635842 9.316560 0.544015
-47.789605 89.635842 9.999406 0.346095
-45.848917 89.635842 11.062733 -0.217825
-43.908229 89.635842 10.808034 -0.122860
-41.967541 89.635842 10.205064 0.101676
-40.026853 89.635842 10.392042 -0.650173
-38.086165 89.635842 10.573492 -0.935240
-36.145477 89.635842 0.000000 0.000000
-34.204789 89.635842 0.000000 0.000000
-32.264101 89.635842 0.000000 0.000000
-30.323413 89.635842 0.000000 0.000000
-28.382725 89.635842 0.000000 0.000000
-26.442037 89.635842 0.000000 0.000000
-24.501349 89.635842 0.000000 0.000000
-22.560661 89.635842 0.000000 0.000000
-20.619973 89.635842 0.000000 0.000000
-18.679285 89.635842 0.000000 0.000000
-16.738597 89.635842 10.271339 0.265196
-14.797909 89.635842 9.838821 0.624398
-12.857221 89.635842 10.141129 0.555403
-10.916533 89.635842 8.741734 0.698304
-8.975845 89.635842 9.496104 0.798172
-7.035157 89.635842 10.830123 0.383536
-5.094469 89.635842 9.562049 0.608239
-3.153781 89.635842 9.799013 1.332582
-1.213093 89.635842 10.765793 0.752950
0.727595 89.635842 10.239184 0.584397
2.668283 89.635842 10.326809 0.281193
4.608971 89.635842 10.427288 0.106109
6.549659 89.635842 10.230948 0.308097
8.490347 89.635842 9.784381 0.489926
10.431035 89.635842 9.394096 0.606574
12.371723 89.635842 9.786050 0.328485
14.312411 89.635842 9.901155 0.331284
16.253099 89.635842 9.824174 0.657969
18.193787 89.635842 10.063977 0.290798
20.134475 89.635842 9.864386 0.105774
22.075163 89.635842 9.539470 0.072902
24.015851 89.635842 9.470967 0.244759
25.956539 89.635842 9.893421 0.332154
27.897227 89.635842 10.312200 0.226514
29.837915 89.635842 10.416714 0.034164
31.778603 89.635842 9.552264 -1.070915
33.719291 89.635842 9.791417 0.081703
35.659979 89.635842 9.438329 0.327088
37.600667 89.635842 9.654505 0.082543