TITLE = "B00001"
VARIABLES = "position", "position(2)", "Avg Vx"
ZONE T="Frame 1" I=102, J=78, F=POINT
-55.552399 103.221001 0.000000
-53.611710 103.221001 9.563498
-51.671021 103.221001 9.549227
-49.730328 103.221001 9.539452
-47.789639 103.221001 9.353285
-45.848949 103.221001 9.567751
-43.908257 103.221001 9.673060
-41.967567 103.221001 9.687751
-40.026878 103.221001 9.524417
-38.086189 103.221001 0.000000
-36.145500 103.221001 0.000000
-34.204807 103.221001 0.000000
-32.264118 103.221001 0.000000
-30.323429 103.221001 0.000000
-28.382738 103.221001 0.000000
-26.442047 103.221001 0.000000
-24.501358 103.221001 0.000000
-22.560669 103.221001 0.000000
-20.619980 103.221001 0.000000
-18.679287 103.221001 0.000000
-16.738598 103.221001 0.000000
-14.797909 103.221001 9.707352
-12.857216 103.221001 9.754315
-10.916527 103.221001 9.746410
-8.975838 103.221001 9.817698
-7.035149 103.221001 9.711001
-5.094460 103.221001 9.850943
-3.153767 103.221001 9.965014
-1.213078 103.221001 9.862163
0.727612 103.221001 9.687158
2.668304 103.221001 9.735244
4.608994 103.221001 9.933456
6.549683 103.221001 9.950738
8.490372 103.221001 9.720003
10.431061 103.221001 9.591382
12.371750 103.221001 9.672424
14.312439 103.221001 9.799712
16.253136 103.221001 9.422615
18.193825 103.221001 9.733198
20.134514 103.221001 9.727013
22.075203 103.221001 9.770830
24.015892 103.221001 9.682859
25.956581 103.221001 9.832845
27.897270 103.221001 9.620560
29.837967 103.221001 9.693822
31.778656 103.221001 9.540692
33.719345 103.221001 9.742114
35.660034 103.221001 9.965250
37.600723 103.221001 9.726357
39.541412 103.221001 9.581833
41.482101 103.221001 9.781311
43.422791 103.221001 9.668365
45.363480 103.221001 9.884582
47.304176 103.221001 10.034803
49.244865 103.221001 10.042168
51.185555 103.221001 9.773289
53.126244 103.221001 9.771648
55.066933 103.221001 9.694822
57.007622 103.221001 10.053726
58.948311 103.221001 0.000000
60.889008 103.221001 0.000000
62.829697 103.221001 0.000000
64.770386 103.221001 0.000000
66.711075 103.221001 0.000000
68.651764 103.221001 0.000000
70.592453 103.221001 9.658835
72.533142 103.221001 9.769341
74.473831 103.221001 9.637671
76.414520 103.221001 9.715105
78.355209 103.221001 9.819514
80.295898 103.221001 9.793390
82.236588 103.221001 9.748472
84.177277 103.221001 9.520442
86.117981 103.221001 9.488138
88.058670 103.221001 9.696908
89.999359 103.221001 9.842686
91.940048 103.221001 9.720613
93.880737 103.221001 9.852565
95.821426 103.221001 9.696338
97.762115 103.221001 9.512279
99.702805 103.221001 9.656928
101.643494 103.221001 9.949254
103.584183 103.221001 9.929722
105.524872 103.221001 9.944423
107.465561 103.221001 9.626264
109.406250 103.221001 9.739294
111.346939 103.221001 9.745653
113.287628 103.221001 9.844135
115.228333 103.221001 9.983435
117.169022 103.221001 9.999357
119.109711 103.221001 9.947212
121.050400 103.221001 9.873228
122.991089 103.221001 9.754656
124.931778 103.221001 9.740941
126.872467 103.221001 9.830474
128.813156 103.221001 9.889164
130.753845 103.221001 9.820917
132.694534 103.221001 9.699811
134.635223 103.221001 9.778201
136.575912 103.221001 9.844440
138.516602 103.221001 9.735556
140.457291 103.221001 0.000000
-55.552399 101.280312 9.285066
-53.611710 101.280312 9.702300
-51.671021 101.280312 9.625932
-49.730328 101.280312 9.697858
-47.789639 101.280312 9.584079
-45.848949 101.280312 9.704842
-43.908257 101.280312 9.636156
-41.967567 101.280312 9.589600
-40.026878 101.280312 9.591231
-38.086189 101.280312 0.000000
-36.145500 101.280312 0.000000
-34.204807 101.280312 0.000000
-32.264118 101.280312 0.000000
-30.323429 101.280312 0.000000
-28.382738 101.280312 0.000000
-26.442047 101.280312 0.000000
-24.501358 101.280312 0.000000
-22.560669 101.280312 0.000000
-20.619980 101.280312 0.000000
-18.679287 101.280312 0.000000
-16.738598 101.280312 0.000000
-14.797909 101.280312 9.719626
-12.857216 101.280312 9.707859
-10.916527 101.280312 9.745009
-8.975838 101.280312 9.827520
-7.035149 101.280312 9.754372
-5.094460 101.280312 9.766410
-3.153767 101.280312 9.875634
-1.213078 101.280312 9.816318
0.727612 101.280312 9.918869
2.668304 101.280312 9.884143
4.608994 101.280312 9.649832
6.549683 101.280312 9.720099
8.490372 101.280312 9.849728
10.431061 101.280312 9.530097
12.371750 101.280312 9.490399
14.312439 101.280312 9.567704
16.253136 101.280312 9.825282
18.193825 101.280312 9.778344
20.134514 101.280312 9.657485
22.075203 101.280312 10.052814
24.015892 101.280312 9.696652
25.956581 101.280312 9.722758
27.897270 101.280312 9.657039
29.837967 101.280312 9.733332
31.778656 101.280312 9.670656
33.719345 101.280312 9.666267
35.660034 101.280312 9.628737
37.600723 101.280312 9.975756
39.541412 101.280312 9.570436
41.482101 101.280312 9.819494
43.422791 101.280312 9.671805
45.363480 101.280312 9.813191
47.304176 101.280312 9.624808
49.244865 101.280312 9.873639
51.185555 101.280312 9.970054
53.126244 101.280312 9.675895
55.066933 101.280312 9.833559
57.007622 101.280312 9.867008
58.948311 101.280312 0.000000
60.889008 101.280312 0.000000
62.829697 101.280312 0.000000
64.770386 101.280312 0.000000
66.711075 101.280312 0.000000
68.651764 101.280312 0.000000
70.592453 101.280312 9.592263
72.533142 101.280312 9.789341
74.473831 101.280312 9.793765
76.414520 101.280312 9.736480
78.355209 101.280312 9.877093
80.295898 101.280312 9.829745
82.236588 101.280312 9.656005
84.177277 101.280312 9.633268
86.117981 101.280312 9.653286
88.058670 101.280312 9.676915
89.999359 101.280312 9.646185
91.940048 101.280312 9.754578
93.880737 101.280312 9.794106
95.821426 101.280312 9.800583
97.762115 101.280312 9.687423
99.702805 101.280312 9.678906
101.643494 101.280312 9.833636
103.584183 101.280312 9.860216
105.524872 101.280312 9.685242
107.465561 101.280312 9.620847
109.406250 101.280312 9.747191
111.346939 101.280312 9.788721
113.287628 101.280312 9.837093
115.228333 101.280312 9.854379
117.169022 101.280312 9.877678
119.109711 101.280312 9.932549
121.050400 101.280312 9.857582
122.991089 101.280312 9.815603
124.931778 101.280312 9.784643
126.872467 101.280312 9.821381
128.813156 101.280312 9.926015
130.753845 101.280312 9.775054
132.694534 101.280312 9.687343
134.635223 101.280312 9.790169
136.575912 101.280312 9.805210
138.516602 101.280312 9.811400
140.457291 101.280312 0.000000
-55.552399 99.339622 9.661304
-53.611710 99.339622 9.909658
-51.671021 99.339622 9.841550
-49.730328 99.339622 9.574135
-47.789639 99.339622 9.660238
-45.848949 99.339622 9.808500
-43.908257 99.339622 9.522318
-41.967567 99.339622 9.541745
-40.026878 99.339622 9.665351
-38.086189 99.339622 0.000000
-36.145500 99.339622 0.000000
-34.204807 99.339622 0.000000
-32.264118 99.339622 0.000000
-30.323429 99.339622 0.000000
-28.382738 99.339622 0.000000
-26.442047 99.339622 0.000000
-24.501358 99.339622 0.000000
-22.560669 99.339622 0.000000
-20.619980 99.339622 0.000000
-18.679287 99.339622 0.000000
-16.738598 99.339622 9.780454
-14.797909 99.339622 9.700407
-12.857216 99.339622 9.664218
-10.916527 99.339622 9.646897
-8.975838 99.339622 9.687198
-7.035149 99.339622 9.680817
-5.094460 99.339622 9.692333
-3.153767 99.339622 9.646323
-1.213078 99.339622 9.797001
0.727612 99.339622 10.026323
2.668304 99.339622 9.837932
4.608994 99.339622 9.708683
6.549683 99.339622 9.507384
8.490372 99.339622 9.915088
10.431061 99.339622 9.680089
12.371750 99.339622 9.578867
14.312439 99.339622 9.788343
16.253136 99.339622 9.932083
18.193825 99.339622 9.916512
20.134514 99.339622 10.044666
22.075203 99.339622 9.672020
24.015892 99.339622 9.568472
25.956581 99.339622 9.616017
27.897270 99.339622 9.617617
29.837967 99.339622 9.842139
31.778656 99.339622 9.844131
33.719345 99.339622 9.660856
35.660034 99.339622 9.801435
37.600723 99.339622 10.095999
39.541412 99.339622 10.170280
41.482101 99.339622 9.923601
43.422791 99.339622 9.871325
45.363480 99.339622 9.587837
47.304176 99.339622 9.782391
49.244865 99.339622 9.998515
51.185555 99.339622 10.083942
53.126244 99.339622 9.982426
55.066933 99.339622 10.163419
57.007622 99.339622 9.647344
58.948311 99.339622 0.000000
60.889008 99.339622 0.000000
62.829697 99.339622 0.000000
64.770386 99.339622 0.000000
66.711075 99.339622 0.000000
68.651764 99.339622 0.000000
70.592453 99.339622 9.641373
72.533142 99.339622 9.833787
74.473831 99.339622 9.888154
76.414520 99.339622 9.904283
78.355209 99.339622 9.839558
80.295898 99.339622 9.767446
82.236588 99.339622 9.667378
84.177277 99.339622 9.564445
86.117981 99.339622 9.742539
88.058670 99.339622 9.700686
89.999359 99.339622 9.600701
91.940048 99.339622 9.649291
93.880737 99.339622 9.646868
95.821426 99.339622 9.668901
97.762115 99.339622 9.742073
99.702805 99.339622 9.779345
101.643494 99.339622 9.839692
103.584183 99.339622 9.827272
105.524872 99.339622 9.624455
107.465561 99.339622 9.554259
109.406250 99.339622 9.699984
111.346939 99.339622 9.830387
113.287628 99.339622 9.847269
115.228333 99.339622 9.773508
117.169022 99.339622 9.746105
119.109711 99.339622 9.907987
121.050400 99.339622 9.885700
122.991089 99.339622 9.829338
124.931778 99.339622 9.792235
126.872467 99.339622 9.719316
128.813156 99.339622 9.721322
130.753845 99.339622 9.814631
132.694534 99.339622 9.833881
134.635223 99.339622 9.812050
136.575912 99.339622 9.792544
138.516602 99.339622 9.811238
140.457291 99.339622 0.000000
-55.552399 97.398933 9.695298
-53.611710 97.398933 9.671215
-51.671021 97.398933 9.576934
-49.730328 97.398933 9.282722
-47.789639 97.398933 9.486249
-45.848949 97.398933 9.647942
-43.908257 97.398933 9.655312
-41.967567 97.398933 9.555262
-40.026878 97.398933 9.548813
-38.086189 97.398933 0.000000
-36.145500 97.398933 0.000000
-34.204807 97.398933 0.000000
-32.264118 97.398933 0.000000
-30.323429 97.398933 0.000000
-28.382738 97.398933 0.000000
-26.442047 97.398933 0.000000
-24.501358 97.398933 0.000000
-22.560669 97.398933 0.000000
-20.619980 97.398933 0.000000
-18.679287 97.398933 0.000000
-16.738598 97.398933 9.771808
-14.797909 97.398933 9.673143
-12.857216 97.398933 9.690804
-10.916527 97.398933 9.662577
-8.975838 97.398933 9.687383
-7.035149 97.398933 9.741585
-5.094460 97.398933 9.691463
-3.153767 97.398933 9.711176
-1.213078 97.398933 9.820550
0.727612 97.398933 9.910486
2.668304 97.398933 9.944613
4.608994 97.398933 9.665386
6.549683 97.398933 9.700698
8.490372 97.398933 9.671945
10.431061 97.398933 9.757363
12.371750 97.398933 9.929372
14.312439 97.398933 10.048287
16.253136 97.398933 10.077365
18.193825 97.398933 10.002121
20.134514 97.398933 9.807248
22.075203 97.398933 9.587397
24.015892 97.398933 9.517102
25.956581 97.398933 9.666484
27.897270 97.398933 9.702069
29.837967 97.398933 9.667571
31.778656 97.398933 9.801242
33.719345 97.398933 10.020975
35.660034 97.398933 9.822924
37.600723 97.398933 10.109087
39.541412 97.398933 10.216784
41.482101 97.398933 9.844126
43.422791 97.398933 9.860155
45.363480 97.398933 9.911026
47.304176 97.398933 10.033257
49.244865 97.398933 10.018071
51.185555 97.398933 9.822670
53.126244 97.398933 10.161074
55.066933 97.398933 9.661256
57.007622 97.398933 9.824381
58.948311 97.398933 0.000000
60.889008 97.398933 0.000000
62.829697 97.398933 0.000000
64.770386 97.398933 0.000000
66.711075 97.398933 0.000000
68.651764 97.398933 0.000000
70.592453 97.398933 9.836320
72.533142 97.398933 9.941675
74.473831 97.398933 9.964278
76.414520 97.398933 9.899840
78.355209 97.398933 9.734787
80.295898 97.398933 9.747061
82.236588 97.398933 9.758069
84.177277 97.398933 9.590716
86.117981 97.398933 9.766781
88.058670 97.398933 9.725467
89.999359 97.398933 9.610891
91.940048 97.398933 9.609099
93.880737 97.398933 9.545569
95.821426 97.398933 9.676028
97.762115 97.398933 9.700187
99.702805 97.398933 9.745666
101.643494 97.398933 9.843460
103.584183 97.398933 9.800491
105.524872 97.398933 9.744402
107.465561 97.398933 9.619520
109.406250 97.398933 9.749868
111.346939 97.398933 9.836048
113.287628 97.398933 9.849180
115.228333 97.398933 9.789204
117.169022 97.398933 9.793464
119.109711 97.398933 9.834521
121.050400 97.398933 9.867103
122.991089 97.398933 9.809354
124.931778 97.398933 9.738022
126.872467 97.398933 9.615473
128.813156 97.398933 9.664367
130.753845 97.398933 9.916031
132.694534 97.398933 9.927788
134.635223 97.398933 9.738473
136.575912 97.398933 9.852191
138.516602 97.398933 9.805783
140.457291 97.398933 0.000000
-55.552399 95.458237 10.053679
-53.611710 95.458237 9.480845
-51.671021 95.458237 9.067962
-49.730328 95.458237 9.226614
-47.789639 95.458237 9.370008
-45.848949 95.458237 9.685720
-43.908257 95.458237 9.733957
-41.967567 95.458237 9.546325
-40.026878 95.458237 9.454223
-38.086189 95.458237 0.000000
-36.145500 95.458237 0.000000
-34.204807 95.458237 0.000000
-32.264118 95.458237 0.000000
-30.323429 95.458237 0.000000
-28.382738 95.458237 0.000000
-26.442047 95.458237 0.000000
-24.501358 95.458237 0.000000
-22.560669 95.458237 0.000000
-20.619980 95.458237 0.000000
-18.679287 95.458237 0.000000
-16.738598 95.458237 9.758526
-14.797909 95.458237 9.701526
-12.857216 95.458237 9.650285
-10.916527 95.458237 9.596499
-8.975838 95.458237 9.645236
-7.035149 95.458237 9.763133
-5.094460 95.458237 9.732549
-3.153767 95.458237 9.615403
-1.213078 95.458237 9.661631
0.727612 95.458237 9.707435
2.668304 95.458237 9.827784
4.608994 95.458237 9.889162
6.549683 95.458237 9.591181
8.490372 95.458237 9.657246
10.431061 95.458237 9.950148
12.371750 95.458237 10.251103
14.312439 95.458237 10.228435
16.253136 95.458237 10.009682
18.193825 95.458237 10.238965
20.134514 95.458237 9.990379
22.075203 95.458237 9.811575
24.015892 95.458237 9.327468
25.956581 95.458237 9.555636
27.897270 95.458237 9.625666
29.837967 95.458237 9.660028
31.778656 95.458237 10.092982
33.719345 95.458237 10.276677
35.660034 95.458237 10.012885
37.600723 95.458237 9.953887
39.541412 95.458237 9.896925
41.482101 95.458237 9.994887
43.422791 95.458237 9.824460
45.363480 95.458237 9.935027
47.304176 95.458237 9.898042
49.244865 95.458237 9.811475
51.185555 95.458237 9.851267
53.126244 95.458237 9.579977
55.066933 95.458237 9.404946
57.007622 95.458237 9.775496
58.948311 95.458237 0.000000
60.889008 95.458237 0.000000
62.829697 95.458237 0.000000
64.770386 95.458237 0.000000
66.711075 95.458237 0.000000
68.651764 95.458237 0.000000
70.592453 95.458237 9.902493
72.533142 95.458237 9.845669
74.473831 95.458237 9.822801
76.414520 95.458237 9.748073
78.355209 95.458237 9.785989
80.295898 95.458237 9.734952
82.236588 95.458237 9.735116
84.177277 95.458237 9.749962
86.117981 95.458237 9.826552
88.058670 95.458237 9.760339
89.999359 95.458237 9.699299
91.940048 95.458237 9.756754
93.880737 95.458237 9.728964
95.821426 95.458237 9.691775
97.762115 95.458237 9.667152
99.702805 95.458237 9.682867
101.643494 95.458237 9.781117
103.584183 95.458237 9.869148
105.524872 95.458237 9.837446
107.465561 95.458237 9.785696
109.406250 95.458237 9.920549
111.346939 95.458237 9.898632
113.287628 95.458237 9.862534
115.228333 95.458237 9.830562
117.169022 95.458237 9.786559
119.109711 95.458237 9.781100
121.050400 95.458237 9.880478
122.991089 95.458237 9.841213
124.931778 95.458237 9.777093
126.872467 95.458237 9.707040
128.813156 95.458237 9.735913
130.753845 95.458237 9.956564
132.694534 95.458237 9.967918
134.635223 95.458237 9.808234
136.575912 95.458237 9.787994
138.516602 95.458237 9.733276
140.457291 95.458237 0.000000
-55.552399 93.517548 9.012567
-53.611710 93.517548 9.429268
-51.671021 93.517548 9.309478
-49.730328 93.517548 9.510583
-47.789639 93.517548 9.662139
-45.848949 93.517548 9.779391
-43.908257 93.517548 9.635322
-41.967567 93.517548 9.459320
-40.026878 93.517548 9.449276
-38.086189 93.517548 9.606950
-36.145500 93.517548 0.000000
-34.204807 93.517548 0.000000
-32.264118 93.517548 0.000000
-30.323429 93.517548 0.000000
-28.382738 93.517548 0.000000
-26.442047 93.517548 0.000000
-24.501358 93.517548 0.000000
-22.560669 93.517548 0.000000
-20.619980 93.517548 0.000000
-18.679287 93.517548 0.000000
-16.738598 93.517548 9.673108
-14.797909 93.517548 9.686019
-12.857216 93.517548 9.643233
-10.916527 93.517548 9.593635
-8.975838 93.517548 9.680545
-7.035149 93.517548 9.683363
-5.094460 93.517548 9.562125
-3.153767 93.517548 9.660377
-1.213078 93.517548 9.735647
0.727612 93.517548 9.845384
2.668304 93.517548 9.827117
4.608994 93.517548 9.910969
6.549683 93.517548 9.790313
8.490372 93.517548 9.726308
10.431061 93.517548 9.714641
12.371750 93.517548 9.958686
14.312439 93.517548 10.088989
16.253136 93.517548 10.049899
18.193825 93.517548 9.996394
20.134514 93.517548 9.726224
22.075203 93.517548 9.720223
24.015892 93.517548 9.649410
25.956581 93.517548 9.801295
27.897270 93.517548 9.695396
29.837967 93.517548 9.860383
31.778656 93.517548 10.286276
33.719345 93.517548 10.106615
35.660034 93.517548 10.070890
37.600723 93.517548 9.914147
39.541412 93.517548 9.925002
41.482101 93.517548 10.023945
43.422791 93.517548 9.948829
45.363480 93.517548 9.818852
47.304176 93.517548 9.891420
49.244865 93.517548 9.922064
51.185555 93.517548 9.837067
53.126244 93.517548 9.768345
55.066933 93.517548 9.534051
57.007622 93.517548 9.756689
58.948311 93.517548 0.000000
60.889008 93.517548 0.000000
62.829697 93.517548 0.000000
64.770386 93.517548 0.000000
66.711075 93.517548 0.000000
68.651764 93.517548 0.000000
70.592453 93.517548 9.832127
72.533142 93.517548 9.774844
74.473831 93.517548 9.819121
76.414520 93.517548 9.702108
78.355209 93.517548 9.780966
80.295898 93.517548 9.814415
82.236588 93.517548 9.779621
84.177277 93.517548 9.685926
86.117981 93.517548 9.711347
88.058670 93.517548 9.885819
89.999359 93.517548 9.792991
91.940048 93.517548 9.823190
93.880737 93.517548 9.843458
95.821426 93.517548 9.670136
97.762115 93.517548 9.681320
99.702805 93.517548 9.713891
101.643494 93.517548 9.838670
103.584183 93.517548 9.927393
105.524872 93.517548 9.846641
107.465561 93.517548 9.826982
109.406250 93.517548 9.851472
111.346939 93.517548 9.865504
113.287628 93.517548 9.852591
115.228333 93.517548 9.819026
117.169022 93.517548 9.741200
119.109711 93.517548 9.773693
121.050400 93.517548 9.873851
122.991089 93.517548 9.837253
124.931778 93.517548 9.798230
126.872467 93.517548 9.714458
128.813156 93.517548 9.758981
130.753845 93.517548 9.927996
132.694534 93.517548 9.936623
134.635223 93.517548 9.830049
136.575912 93.517548 9.759696
138.516602 93.517548 9.727075
140.457291 93.517548 0.000000
-55.552399 91.576859 9.490610
-53.611710 91.576859 9.481250
-51.671021 91.576859 9.521683
-49.730328 91.576859 9.536004
-47.789639 91.576859 9.547516
-45.848949 91.576859 9.509086
-43.908257 91.576859 9.654404
-41.967567 91.576859 9.584219
-40.026878 91.576859 9.554487
-38.086189 91.576859 9.688469
-36.145500 91.576859 0.000000
-34.204807 91.576859 0.000000
-32.264118 91.576859 0.000000
-30.323429 91.576859 0.000000
-28.382738 91.576859 0.000000
-26.442047 91.576859 0.000000
-24.501358 91.576859 0.000000
-22.560669 91.576859 0.000000
-20.619980 91.576859 0.000000
-18.679287 91.576859 0.000000
-16.738598 91.576859 9.669251
-14.797909 91.576859 9.679481
-12.857216 91.576859 9.596907
-10.916527 91.576859 9.587808
-8.975838 91.576859 9.622753
-7.035149 91.576859 9.687543
-5.094460 91.576859 9.624081
-3.153767 91.576859 9.789269
-1.213078 91.576859 10.025271
0.727612 91.576859 10.029941
2.668304 91.576859 9.668503
4.608994 91.576859 9.858524
6.549683 91.576859 10.006863
8.490372 91.576859 9.829363
10.431061 91.576859 9.668064
12.371750 91.576859 9.754036
14.312439 91.576859 9.687888
16.253136 91.576859 9.968788
18.193825 91.576859 9.825544
20.134514 91.576859 9.727714
22.075203 91.576859 9.873515
24.015892 91.576859 9.903742
25.956581 91.576859 9.813930
27.897270 91.576859 9.779369
29.837967 91.576859 9.776773
31.778656 91.576859 9.925446
33.719345 91.576859 9.837309
35.660034 91.576859 9.745002
37.600723 91.576859 9.795475
39.541412 91.576859 9.905834
41.482101 91.576859 9.748165
43.422791 91.576859 9.697803
45.363480 91.576859 9.651173
47.304176 91.576859 9.889999
49.244865 91.576859 10.052546
51.185555 91.576859 9.849860
53.126244 91.576859 9.789676
55.066933 91.576859 9.871070
57.007622 91.576859 9.998212
58.948311 91.576859 0.000000
60.889008 91.576859 0.000000
62.829697 91.576859 0.000000
64.770386 91.576859 0.000000
66.711075 91.576859 0.000000
68.651764 91.576859 0.000000
70.592453 91.576859 9.782770
72.533142 91.576859 9.729781
74.473831 91.576859 9.743093
76.414520 91.576859 9.674675
78.355209 91.576859 9.760660
80.295898 91.576859 9.779627
82.236588 91.576859 9.727320
84.177277 91.576859 9.720745
86.117981 91.576859 9.807817
88.058670 91.576859 9.869550
89.999359 91.576859 9.735583
91.940048 91.576859 9.775190
93.880737 91.576859 9.786042
95.821426 91.576859 9.674664
97.762115 91.576859 9.754577
99.702805 91.576859 9.921171
101.643494 91.576859 9.981516
103.584183 91.576859 9.955861
105.524872 91.576859 9.878369
107.465561 91.576859 9.838674
109.406250 91.576859 9.820336
111.346939 91.576859 9.727873
113.287628 91.576859 9.818989
115.228333 91.576859 9.823454
117.169022 91.576859 9.753311
119.109711 91.576859 9.746506
121.050400 91.576859 9.855420
122.991089 91.576859 9.797763
124.931778 91.576859 9.741431
126.872467 91.576859 9.710365
128.813156 91.576859 9.745600
130.753845 91.576859 9.791636
132.694534 91.576859 9.892847
134.635223 91.576859 9.853984
136.575912 91.576859 9.770998
138.516602 91.576859 9.741073
140.457291 91.576859 0.000000
-55.552399 89.636169 9.510152
-53.611710 89.636169 9.339405
-51.671021 89.636169 9.536455
-49.730328 89.636169 9.550619
-47.789639 89.636169 9.369996
-45.848949 89.636169 9.527145
-43.908257 89.636169 9.808744
-41.967567 89.636169 9.622149
-40.026878 89.636169 9.518693
-38.086189 89.636169 9.647537
-36.145500 89.636169 0.000000
-34.204807 89.636169 0.000000
-32.264118 89.636169 0.000000
-30.323429 89.636169 0.000000
-28.382738 89.636169 0.000000
-26.442047 89.636169 0.000000
-24.501358 89.636169 0.000000
-22.560669 89.636169 0.000000
-20.619980 89.636169 0.000000
-18.679287 89.636169 0.000000
-16.738598 89.636169 9.690943
-14.797909 89.636169 9.803189
-12.857216 89.636169 9.675090
-10.916527 89.636169 9.570070
-8.975838 89.636169 9.596867
-7.035149 89.636169 9.665895
-5.094460 89.636169 9.639951
-3.153767 89.636169 9.796248
-1.213078 89.636169 9.870190
0.727612 89.636169 9.834131
2.668304 89.636169 9.721283
4.608994 89.636169 9.711211
6.549683 89.636169 9.728745
8.490372 89.636169 9.760701
10.431061 89.636169 9.730919
12.371750 89.636169 9.750528
14.312439 89.636169 9.803404
16.253136 89.636169 9.750816
18.193825 89.636169 9.783916
20.134514 89.636169 9.768893
22.075203 89.636169 9.644187
24.015892 89.636169 9.780219
25.956581 89.636169 9.702815
27.897270 89.636169 9.801603
29.837967 89.636169 9.938062
31.778656 89.636169 9.837094
33.719345 89.636169 9.702781
35.660034 89.636169 9.710449
37.600723 89.636169 9.788832
39.541412 89.636169 9.840983
41.482101 89.636169 9.756931
43.422791 89.636169 9.756630
45.363480 89.636169 9.678504
47.304176 89.636169 9.693042
49.244865 89.636169 9.832179
51.185555 89.636169 9.791260
53.126244 89.636169 9.820546
55.066933 89.636169 9.913970
57.007622 89.636169 9.891512
58.948311 89.636169 9.831130
60.889008 89.636169 0.000000
62.829697 89.636169 0.000000
64.770386 89.636169 0.000000
66.711075 89.636169 0.000000
68.651764 89.636169 0.000000
70.592453 89.636169 9.714942
72.533142 89.636169 9.623978
74.473831 89.636169 9.428257
76.414520 89.636169 9.574183
78.355209 89.636169 9.797928
80.295898 89.636169 9.731054
82.236588 89.636169 9.708670
84.177277 89.636169 9.663704
86.117981 89.636169 9.733664
88.058670 89.636169 9.766922
89.999359 89.636169 9.704880
91.940048 89.636169 9.735823
93.880737 89.636169 9.846189
95.821426 89.636169 9.807943
97.762115 89.636169 9.836189
99.702805 89.636169 9.875398
101.643494 89.636169 9.919265
103.584183 89.636169 9.828502
105.524872 89.636169 9.794890
107.465561 89.636169 9.806890
109.406250 89.636169 9.863543
111.346939 89.636169 9.824295
113.287628 89.636169 9.746323
115.228333 89.636169 9.727219
117.169022 89.636169 9.723576
119.109711 89.636169 9.798723
121.050400 89.636169 9.857291
122.991089 89.636169 9.801583
124.931778 89.636169 9.703715
126.872467 89.636169 9.750370
128.813156 89.636169 9.809476
130.753845 89.636169 9.767080
132.694534 89.636169 9.821080
134.635223 89.636169 9.807765
136.575912 89.636169 9.764278
138.516602 89.636169 9.829616
140.457291 89.636169 0.000000
-55.552399 87.695480 9.065719
-53.611710 87.695480 9.331800
-51.671021 87.695480 9.682684
-49.730328 87.695480 9.578424
-47.789639 87.695480 9.391275
-45.848949 87.695480 9.632913
-43.908257 87.695480 9.746692
-41.967567 87.695480 9.505157
-40.026878 87.695480 9.418038
-38.086189 87.695480 9.451549
-36.145500 87.695480 0.000000
-34.204807 87.695480 0.000000
-32.264118 87.695480 0.000000
-30.323429 87.695480 0.000000
-28.382738 87.695480 0.000000
-26.442047 87.695480 0.000000
-24.501358 87.695480 0.000000
-22.560669 87.695480 0.000000
-20.619980 87.695480 0.000000
-18.679287 87.695480 0.000000
-16.738598 87.695480 9.733557
-14.797909 87.695480 9.749583
-12.857216 87.695480 9.799801
-10.916527 87.695480 9.618072
-8.975838 87.695480 9.610712
-7.035149 87.695480 9.685064
-5.094460 87.695480 9.730443
-3.153767 87.695480 9.860042
-1.213078 87.695480 9.820683
0.727612 87.695480 9.870459
2.668304 87.695480 9.853012
4.608994 87.695480 9.681465
6.549683 87.695480 9.786358
8.490372 87.695480 9.874290
10.431061 87.695480 9.905232
12.371750 87.695480 9.843326
14.312439 87.695480 9.862195
16.253136 87.695480 9.771001
18.193825 87.695480 9.736435
20.134514 87.695480 9.824544
22.075203 87.695480 9.673957
24.015892 87.695480 9.700382
25.956581 87.695480 9.845631
27.897270 87.695480 9.845029
29.837967 87.695480 9.861847
31.778656 87.695480 9.840754
33.719345 87.695480 9.750628
35.660034 87.695480 9.767170
37.600723 87.695480 9.804690
39.541412 87.695480 9.801261
41.482101 87.695480 9.859140
43.422791 87.695480 9.894914
45.363480 87.695480 9.886299
47.304176 87.695480 9.797673
49.244865 87.695480 9.771552
51.185555 87.695480 9.899716
53.126244 87.695480 9.867512
55.066933 87.695480 9.709119
57.007622 87.695480 9.836575
58.948311 87.695480 9.795330
60.889008 87.695480 0.000000
62.829697 87.695480 0.000000
64.770386 87.695480 0.000000
66.711075 87.695480 0.000000
68.651764 87.695480 0.000000
70.592453 87.695480 9.667077
72.533142 87.695480 9.596265
74.473831 87.695480 9.496166
76.414520 87.695480 9.585225
78.355209 87.695480 9.614841
80.295898 87.695480 9.841251
82.236588 87.695480 9.807426
84.177277 87.695480 9.667008
86.117981 87.695480 9.723863
88.058670 87.695480 9.726893
89.999359 87.695480 9.749057
91.940048 87.695480 9.759641
93.880737 87.695480 9.873711
95.821426 87.695480 9.877846
97.762115 87.695480 9.789341
99.702805 87.695480 9.719275
101.643494 87.695480 9.785812
103.584183 87.695480 9.719830
105.524872 87.695480 9.725773
107.465561 87.695480 9.726365
109.406250 87.695480 9.766445
111.346939 87.695480 9.800536
113.287628 87.695480 9.734495
115.228333 87.695480 9.660707
117.169022 87.695480 9.746894
119.109711 87.695480 9.810782
121.050400 87.695480 9.799991
122.991089 87.695480 9.706846
124.931778 87.695480 9.727652
126.872467 87.695480 9.776817
128.813156 87.695480 9.760625
130.753845 87.695480 9.795233
132.694534 87.695480 9.778774
134.635223 87.695480 9.716437
136.575912 87.695480 9.742230
138.516602 87.695480 9.872136
140.457291 87.695480 0.000000
-55.552399 85.754791 9.606359
-53.611710 85.754791 9.760312
-51.671021 85.754791 9.831427
-49.730328 85.754791 9.416715
-47.789639 85.754791 9.434378
-45.848949 85.754791 9.602043
-43.908257 85.754791 9.681864
-41.967567 85.754791 9.528718
-40.026878 85.754791 9.528700
-38.086189 85.754791 9.627687
-36.145500 85.754791 0.000000
-34.204807 85.754791 0.000000
-32.264118 85.754791 0.000000
-30.323429 85.754791 0.000000
-28.382738 85.754791 0.000000
-26.442047 85.754791 0.000000
-24.501358 85.754791 0.000000
-22.560669 85.754791 0.000000
-20.619980 85.754791 0.000000
-18.679287 85.754791 0.000000
-16.738598 85.754791 9.787480
-14.797909 85.754791 9.713376
-12.857216 85.754791 9.769337
-10.916527 85.754791 9.732208
-8.975838 85.754791 9.658403
-7.035149 85.754791 9.783280
-5.094460 85.754791 9.909815
-3.153767 85.754791 9.887891
-1.213078 85.754791 9.696406
0.727612 85.754791 9.779972
2.668304 85.754791 9.824523
4.608994 85.754791 9.665600
6.549683 85.754791 9.739569
8.490372 85.754791 9.859981
10.431061 85.754791 9.822302
12.371750 85.754791 9.848795
14.312439 85.754791 9.847426
16.253136 85.754791 9.839486
18.193825 85.754791 9.840035
20.134514 85.754791 9.794748
22.075203 85.754791 9.836028
24.015892 85.754791 9.840520
25.956581 85.754791 9.899004
27.897270 85.754791 9.911238
29.837967 85.754791 9.872469
31.778656 85.754791 9.803779
33.719345 85.754791 9.751655
35.660034 85.754791 9.817719
37.600723 85.754791 9.827963
39.541412 85.754791 9.789394
41.482101 85.754791 9.846885
43.422791 85.754791 9.845810
45.363480 85.754791 9.889565
47.304176 85.754791 9.808441
49.244865 85.754791 9.825929
51.185555 85.754791 10.022353
53.126244 85.754791 9.929021
55.066933 85.754791 9.699049
57.007622 85.754791 9.788208
58.948311 85.754791 9.653858
60.889008 85.754791 0.000000
62.829697 85.754791 0.000000
64.770386 85.754791 0.000000
66.711075 85.754791 0.000000
68.651764 85.754791 9.898995
70.592453 85.754791 9.756161
72.533142 85.754791 9.666647
74.473831 85.754791 9.713257
76.414520 85.754791 9.737889
78.355209 85.754791 9.712490
80.295898 85.754791 9.779444
82.236588 85.754791 9.788504
84.177277 85.754791 9.706004
86.117981 85.754791 9.780587
88.058670 85.754791 9.764387
89.999359 85.754791 9.750812
91.940048 85.754791 9.644198
93.880737 85.754791 9.773301
95.821426 85.754791 9.815082
97.762115 85.754791 9.738462
99.702805 85.754791 9.703036
101.643494 85.754791 9.814507
103.584183 85.754791 9.771441
105.524872 85.754791 9.776657
107.465561 85.754791 9.741565
109.406250 85.754791 9.728189
111.346939 85.754791 9.724852
113.287628 85.754791 9.746183
115.228333 85.754791 9.760749
117.169022 85.754791 9.746126
119.109711 85.754791 9.828317