TITLE = "B00006"
VARIABLES = "position", "position(2)", "Length of RMS V"
ZONE T="Frame 1" I=102, J=78, F=POINT
-55.552399 103.221001 0.000000
-53.611710 103.221001 8.791415
-51.671021 103.221001 8.793059
-49.730328 103.221001 11.425246
-47.789639 103.221001 13.272710
-45.848949 103.221001 5.787022
-43.908257 103.221001 5.986343
-41.967567 103.221001 2.409388
-40.026878 103.221001 3.996904
-38.086189 103.221001 11.326118
-36.145500 103.221001 18.469425
-34.204807 103.221001 3.856928
-32.264118 103.221001 15.587743
-30.323429 103.221001 8.325191
-28.382738 103.221001 0.000000
-26.442047 103.221001 0.000000
-24.501358 103.221001 0.000000
-22.560669 103.221001 0.000000
-20.619980 103.221001 0.000000
-18.679287 103.221001 8.213050
-16.738598 103.221001 5.784958
-14.797909 103.221001 2.717968
-12.857216 103.221001 0.803345
-10.916527 103.221001 1.038972
-8.975838 103.221001 1.230316
-7.035149 103.221001 1.693045
-5.094460 103.221001 1.841670
-3.153767 103.221001 1.932775
-1.213078 103.221001 1.575924
0.727612 103.221001 1.945376
2.668304 103.221001 1.813494
4.608994 103.221001 3.973408
6.549683 103.221001 3.961093
8.490372 103.221001 6.656884
10.431061 103.221001 7.597636
12.371750 103.221001 12.861946
14.312439 103.221001 9.011317
16.253136 103.221001 4.594484
18.193825 103.221001 10.884345
20.134514 103.221001 9.344362
22.075203 103.221001 9.353767
24.015892 103.221001 6.027194
25.956581 103.221001 6.711593
27.897270 103.221001 1.429675
29.837967 103.221001 1.623479
31.778656 103.221001 1.927633
33.719345 103.221001 2.570455
35.660034 103.221001 2.659780
37.600723 103.221001 3.413274
39.541412 103.221001 2.869482
41.482101 103.221001 6.508874
43.422791 103.221001 2.709744
45.363480 103.221001 2.814148
47.304176 103.221001 3.874993
49.244865 103.221001 1.174110
51.185555 103.221001 6.600780
53.126244 103.221001 4.489357
55.066933 103.221001 3.976289
57.007622 103.221001 5.897459
58.948311 103.221001 7.326894
60.889008 103.221001 0.000000
62.829697 103.221001 0.000000
64.770386 103.221001 0.000000
66.711075 103.221001 0.000000
68.651764 103.221001 2.210758
70.592453 103.221001 1.251473
72.533142 103.221001 1.106275
74.473831 103.221001 1.165462
76.414520 103.221001 1.378293
78.355209 103.221001 1.108304
80.295898 103.221001 0.837784
82.236588 103.221001 1.546986
84.177277 103.221001 1.179605
86.117981 103.221001 0.967262
88.058670 103.221001 1.459738
89.999359 103.221001 0.896813
91.940048 103.221001 1.019401
93.880737 103.221001 1.500849
95.821426 103.221001 1.239363
97.762115 103.221001 1.286915
99.702805 103.221001 1.201299
101.643494 103.221001 1.011488
103.584183 103.221001 0.719798
105.524872 103.221001 1.051940
107.465561 103.221001 1.190315
109.406250 103.221001 0.742498
111.346939 103.221001 0.598488
113.287628 103.221001 1.051526
115.228333 103.221001 0.946080
117.169022 103.221001 0.934084
119.109711 103.221001 1.067309
121.050400 103.221001 1.291785
122.991089 103.221001 1.130523
124.931778 103.221001 1.019223
126.872467 103.221001 0.984973
128.813156 103.221001 1.081735
130.753845 103.221001 1.072692
132.694534 103.221001 0.862417
134.635223 103.221001 0.984777
136.575912 103.221001 0.690532
138.516602 103.221001 0.871276
140.457291 103.221001 0.000000
-55.552399 101.280312 10.697105
-53.611710 101.280312 15.027303
-51.671021 101.280312 10.926061
-49.730328 101.280312 11.881475
-47.789639 101.280312 7.732406
-45.848949 101.280312 9.647199
-43.908257 101.280312 6.798803
-41.967567 101.280312 5.686243
-40.026878 101.280312 6.641173
-38.086189 101.280312 14.898741
-36.145500 101.280312 30.400768
-34.204807 101.280312 9.770286
-32.264118 101.280312 20.683279
-30.323429 101.280312 9.028543
-28.382738 101.280312 7.863219
-26.442047 101.280312 0.000000
-24.501358 101.280312 0.000000
-22.560669 101.280312 0.000000
-20.619980 101.280312 0.000000
-18.679287 101.280312 9.109381
-16.738598 101.280312 5.472542
-14.797909 101.280312 2.396489
-12.857216 101.280312 0.611935
-10.916527 101.280312 0.733651
-8.975838 101.280312 1.103065
-7.035149 101.280312 1.571949
-5.094460 101.280312 2.039359
-3.153767 101.280312 1.295754
-1.213078 101.280312 1.264042
0.727612 101.280312 1.713291
2.668304 101.280312 1.492338
4.608994 101.280312 2.237249
6.549683 101.280312 3.034841
8.490372 101.280312 3.433262
10.431061 101.280312 5.964065
12.371750 101.280312 8.637381
14.312439 101.280312 7.216196
16.253136 101.280312 9.735262
18.193825 101.280312 6.588545
20.134514 101.280312 5.658733
22.075203 101.280312 8.368136
24.015892 101.280312 6.127644
25.956581 101.280312 4.618321
27.897270 101.280312 1.590346
29.837967 101.280312 1.265397
31.778656 101.280312 2.176644
33.719345 101.280312 2.452838
35.660034 101.280312 3.439358
37.600723 101.280312 1.194148
39.541412 101.280312 2.319567
41.482101 101.280312 4.703755
43.422791 101.280312 3.543455
45.363480 101.280312 4.341493
47.304176 101.280312 5.418628
49.244865 101.280312 6.956305
51.185555 101.280312 7.292238
53.126244 101.280312 4.079915
55.066933 101.280312 4.358422
57.007622 101.280312 6.743134
58.948311 101.280312 9.412767
60.889008 101.280312 0.000000
62.829697 101.280312 0.000000
64.770386 101.280312 0.000000
66.711075 101.280312 0.000000
68.651764 101.280312 2.260492
70.592453 101.280312 1.010300
72.533142 101.280312 1.107947
74.473831 101.280312 1.059755
76.414520 101.280312 1.027140
78.355209 101.280312 0.962874
80.295898 101.280312 1.063662
82.236588 101.280312 1.282850
84.177277 101.280312 1.082115
86.117981 101.280312 0.966968
88.058670 101.280312 0.945951
89.999359 101.280312 1.009032
91.940048 101.280312 1.202613
93.880737 101.280312 1.202118
95.821426 101.280312 0.970851
97.762115 101.280312 0.977168
99.702805 101.280312 0.978496
101.643494 101.280312 0.782224
103.584183 101.280312 0.748399
105.524872 101.280312 0.634271
107.465561 101.280312 1.069594
109.406250 101.280312 0.654310
111.346939 101.280312 0.644760
113.287628 101.280312 1.025599
115.228333 101.280312 0.775255
117.169022 101.280312 0.991946
119.109711 101.280312 0.994789
121.050400 101.280312 0.986993
122.991089 101.280312 0.774908
124.931778 101.280312 1.210402
126.872467 101.280312 0.874916
128.813156 101.280312 1.114596
130.753845 101.280312 0.824053
132.694534 101.280312 0.879479
134.635223 101.280312 0.776150
136.575912 101.280312 0.715527
138.516602 101.280312 0.838075
140.457291 101.280312 0.000000
-55.552399 99.339622 16.032469
-53.611710 99.339622 9.529199
-51.671021 99.339622 15.626913
-49.730328 99.339622 13.541037
-47.789639 99.339622 12.883694
-45.848949 99.339622 7.592503
-43.908257 99.339622 7.241446
-41.967567 99.339622 1.074898
-40.026878 99.339622 6.109124
-38.086189 99.339622 9.690225
-36.145500 99.339622 4.137844
-34.204807 99.339622 21.040964
-32.264118 99.339622 6.370187
-30.323429 99.339622 8.785640
-28.382738 99.339622 6.393706
-26.442047 99.339622 7.658571
-24.501358 99.339622 0.000000
-22.560669 99.339622 0.000000
-20.619980 99.339622 0.000000
-18.679287 99.339622 6.500017
-16.738598 99.339622 5.172047
-14.797909 99.339622 0.448829
-12.857216 99.339622 0.542544
-10.916527 99.339622 0.786354
-8.975838 99.339622 0.828591
-7.035149 99.339622 1.390952
-5.094460 99.339622 1.690314
-3.153767 99.339622 1.501053
-1.213078 99.339622 1.380843
0.727612 99.339622 1.346092
2.668304 99.339622 1.208453
4.608994 99.339622 1.840068
6.549683 99.339622 1.180714
8.490372 99.339622 2.161531
10.431061 99.339622 8.883594
12.371750 99.339622 8.747325
14.312439 99.339622 8.893226
16.253136 99.339622 10.116096
18.193825 99.339622 9.485649
20.134514 99.339622 8.375377
22.075203 99.339622 2.259591
24.015892 99.339622 1.540297
25.956581 99.339622 1.423600
27.897270 99.339622 1.429870
29.837967 99.339622 1.338461
31.778656 99.339622 2.736760
33.719345 99.339622 2.757269
35.660034 99.339622 2.610536
37.600723 99.339622 2.665908
39.541412 99.339622 3.349590
41.482101 99.339622 4.384469
43.422791 99.339622 3.309892
45.363480 99.339622 4.166648
47.304176 99.339622 3.822019
49.244865 99.339622 4.768017
51.185555 99.339622 7.969578
53.126244 99.339622 6.750759
55.066933 99.339622 7.991463
57.007622 99.339622 4.875998
58.948311 99.339622 0.000000
60.889008 99.339622 0.000000
62.829697 99.339622 0.000000
64.770386 99.339622 0.000000
66.711075 99.339622 0.000000
68.651764 99.339622 2.742774
70.592453 99.339622 1.193632
72.533142 99.339622 1.156586
74.473831 99.339622 1.126835
76.414520 99.339622 1.084145
78.355209 99.339622 1.071619
80.295898 99.339622 1.377130
82.236588 99.339622 1.285887
84.177277 99.339622 0.777220
86.117981 99.339622 0.975514
88.058670 99.339622 1.086359
89.999359 99.339622 1.053981
91.940048 99.339622 0.962469
93.880737 99.339622 0.887877
95.821426 99.339622 0.893017
97.762115 99.339622 1.035369
99.702805 99.339622 1.010581
101.643494 99.339622 0.790671
103.584183 99.339622 0.767763
105.524872 99.339622 1.073619
107.465561 99.339622 0.917327
109.406250 99.339622 0.836124
111.346939 99.339622 0.741396
113.287628 99.339622 0.854501
115.228333 99.339622 0.804913
117.169022 99.339622 0.857916
119.109711 99.339622 0.717267
121.050400 99.339622 0.708064
122.991089 99.339622 0.802077
124.931778 99.339622 0.717349
126.872467 99.339622 0.740419
128.813156 99.339622 0.749679
130.753845 99.339622 0.827176
132.694534 99.339622 0.776255
134.635223 99.339622 0.735995
136.575912 99.339622 0.504110
138.516602 99.339622 0.860608
140.457291 99.339622 0.000000
-55.552399 97.398933 15.112098
-53.611710 97.398933 15.708425
-51.671021 97.398933 12.036046
-49.730328 97.398933 12.534362
-47.789639 97.398933 9.944266
-45.848949 97.398933 5.252560
-43.908257 97.398933 4.545320
-41.967567 97.398933 2.977955
-40.026878 97.398933 1.848827
-38.086189 97.398933 5.152955
-36.145500 97.398933 0.000000
-34.204807 97.398933 0.000000
-32.264118 97.398933 0.000000
-30.323429 97.398933 0.000000
-28.382738 97.398933 0.000000
-26.442047 97.398933 0.000000
-24.501358 97.398933 0.000000
-22.560669 97.398933 0.000000
-20.619980 97.398933 0.000000
-18.679287 97.398933 0.000000
-16.738598 97.398933 3.148781
-14.797909 97.398933 0.605390
-12.857216 97.398933 0.945286
-10.916527 97.398933 0.804945
-8.975838 97.398933 0.658300
-7.035149 97.398933 0.907848
-5.094460 97.398933 1.356045
-3.153767 97.398933 1.385086
-1.213078 97.398933 1.255310
0.727612 97.398933 1.188343
2.668304 97.398933 1.335010
4.608994 97.398933 1.389794
6.549683 97.398933 1.262840
8.490372 97.398933 2.440683
10.431061 97.398933 9.624414
12.371750 97.398933 11.691303
14.312439 97.398933 11.432962
16.253136 97.398933 5.411528
18.193825 97.398933 10.969236
20.134514 97.398933 5.874104
22.075203 97.398933 6.474150
24.015892 97.398933 1.355905
25.956581 97.398933 1.057029
27.897270 97.398933 1.108832
29.837967 97.398933 1.050399
31.778656 97.398933 1.773058
33.719345 97.398933 2.666136
35.660034 97.398933 2.150210
37.600723 97.398933 4.544309
39.541412 97.398933 2.405019
41.482101 97.398933 4.919938
43.422791 97.398933 4.356087
45.363480 97.398933 5.263355
47.304176 97.398933 2.614172
49.244865 97.398933 3.906137
51.185555 97.398933 4.180573
53.126244 97.398933 4.586443
55.066933 97.398933 5.840150
57.007622 97.398933 7.200333
58.948311 97.398933 0.000000
60.889008 97.398933 0.000000
62.829697 97.398933 0.000000
64.770386 97.398933 0.000000
66.711075 97.398933 0.000000
68.651764 97.398933 0.000000
70.592453 97.398933 1.537680
72.533142 97.398933 1.080062
74.473831 97.398933 1.156040
76.414520 97.398933 1.098096
78.355209 97.398933 1.254880
80.295898 97.398933 1.398083
82.236588 97.398933 1.615663
84.177277 97.398933 0.808516
86.117981 97.398933 1.019527
88.058670 97.398933 0.957706
89.999359 97.398933 0.879951
91.940048 97.398933 1.104305
93.880737 97.398933 1.001441
95.821426 97.398933 0.941488
97.762115 97.398933 0.718916
99.702805 97.398933 0.774843
101.643494 97.398933 0.734014
103.584183 97.398933 0.711684
105.524872 97.398933 0.733326
107.465561 97.398933 0.852761
109.406250 97.398933 0.648834
111.346939 97.398933 0.629907
113.287628 97.398933 0.707770
115.228333 97.398933 0.509010
117.169022 97.398933 0.626076
119.109711 97.398933 0.578822
121.050400 97.398933 0.600936
122.991089 97.398933 0.954979
124.931778 97.398933 0.805663
126.872467 97.398933 0.618296
128.813156 97.398933 0.943592
130.753845 97.398933 0.666011
132.694534 97.398933 0.928288
134.635223 97.398933 0.534570
136.575912 97.398933 0.672056
138.516602 97.398933 0.788451
140.457291 97.398933 0.000000
-55.552399 95.458237 10.089112
-53.611710 95.458237 8.693803
-51.671021 95.458237 11.642440
-49.730328 95.458237 7.870028
-47.789639 95.458237 4.822608
-45.848949 95.458237 3.169808
-43.908257 95.458237 2.943817
-41.967567 95.458237 1.080328
-40.026878 95.458237 3.768597
-38.086189 95.458237 0.000000
-36.145500 95.458237 0.000000
-34.204807 95.458237 0.000000
-32.264118 95.458237 0.000000
-30.323429 95.458237 0.000000
-28.382738 95.458237 0.000000
-26.442047 95.458237 0.000000
-24.501358 95.458237 0.000000
-22.560669 95.458237 0.000000
-20.619980 95.458237 0.000000
-18.679287 95.458237 0.000000
-16.738598 95.458237 2.949993
-14.797909 95.458237 0.623003
-12.857216 95.458237 0.797837
-10.916527 95.458237 0.714519
-8.975838 95.458237 0.723000
-7.035149 95.458237 1.076765
-5.094460 95.458237 1.043476
-3.153767 95.458237 1.198601
-1.213078 95.458237 0.984971
0.727612 95.458237 1.364180
2.668304 95.458237 1.383813
4.608994 95.458237 1.447303
6.549683 95.458237 1.395204
8.490372 95.458237 5.014729
10.431061 95.458237 9.050859
12.371750 95.458237 11.938112
14.312439 95.458237 12.735613
16.253136 95.458237 12.056632
18.193825 95.458237 10.008191
20.134514 95.458237 6.955647
22.075203 95.458237 1.451671
24.015892 95.458237 1.203121
25.956581 95.458237 1.643500
27.897270 95.458237 1.414906
29.837967 95.458237 1.245161
31.778656 95.458237 1.331394
33.719345 95.458237 2.038957
35.660034 95.458237 2.309155
37.600723 95.458237 3.097884
39.541412 95.458237 2.863612
41.482101 95.458237 1.649159
43.422791 95.458237 3.469698
45.363480 95.458237 3.414896
47.304176 95.458237 1.243345
49.244865 95.458237 6.364369
51.185555 95.458237 1.801298
53.126244 95.458237 2.469209
55.066933 95.458237 1.529747
57.007622 95.458237 1.623245
58.948311 95.458237 0.000000
60.889008 95.458237 0.000000
62.829697 95.458237 0.000000
64.770386 95.458237 0.000000
66.711075 95.458237 0.000000
68.651764 95.458237 0.000000
70.592453 95.458237 1.271489
72.533142 95.458237 1.206495
74.473831 95.458237 1.042909
76.414520 95.458237 1.210628
78.355209 95.458237 1.582451
80.295898 95.458237 1.061917
82.236588 95.458237 1.031793
84.177277 95.458237 0.956001
86.117981 95.458237 1.498180
88.058670 95.458237 1.060504
89.999359 95.458237 0.936806
91.940048 95.458237 0.777192
93.880737 95.458237 1.012554
95.821426 95.458237 0.864145
97.762115 95.458237 0.846038
99.702805 95.458237 0.583091
101.643494 95.458237 0.791908
103.584183 95.458237 0.819075
105.524872 95.458237 0.901776
107.465561 95.458237 0.613727
109.406250 95.458237 0.623244
111.346939 95.458237 0.770626
113.287628 95.458237 0.661257
115.228333 95.458237 0.556474
117.169022 95.458237 0.649501
119.109711 95.458237 0.715158
121.050400 95.458237 0.736046
122.991089 95.458237 0.834093
124.931778 95.458237 0.721696
126.872467 95.458237 0.751720
128.813156 95.458237 0.618347
130.753845 95.458237 0.642807
132.694534 95.458237 0.674161
134.635223 95.458237 0.603125
136.575912 95.458237 0.499605
138.516602 95.458237 0.683994
140.457291 95.458237 0.000000
-55.552399 93.517548 14.413051
-53.611710 93.517548 14.988729
-51.671021 93.517548 9.608333
-49.730328 93.517548 5.838074
-47.789639 93.517548 8.925673
-45.848949 93.517548 2.937263
-43.908257 93.517548 0.983413
-41.967567 93.517548 1.094419
-40.026878 93.517548 1.323766
-38.086189 93.517548 0.000000
-36.145500 93.517548 0.000000
-34.204807 93.517548 0.000000
-32.264118 93.517548 0.000000
-30.323429 93.517548 0.000000
-28.382738 93.517548 0.000000
-26.442047 93.517548 0.000000
-24.501358 93.517548 0.000000
-22.560669 93.517548 0.000000
-20.619980 93.517548 0.000000
-18.679287 93.517548 0.000000
-16.738598 93.517548 0.759932
-14.797909 93.517548 0.650369
-12.857216 93.517548 0.745006
-10.916527 93.517548 0.689207
-8.975838 93.517548 0.634346
-7.035149 93.517548 1.176991
-5.094460 93.517548 1.219401
-3.153767 93.517548 1.308554
-1.213078 93.517548 0.940136
0.727612 93.517548 1.882574
2.668304 93.517548 1.681119
4.608994 93.517548 1.970299
6.549683 93.517548 1.193390
8.490372 93.517548 1.351285
10.431061 93.517548 2.557981
12.371750 93.517548 6.056670
14.312439 93.517548 9.413299
16.253136 93.517548 9.892972
18.193825 93.517548 5.231739
20.134514 93.517548 4.020936
22.075203 93.517548 1.609259
24.015892 93.517548 1.115477
25.956581 93.517548 1.612481
27.897270 93.517548 1.652151
29.837967 93.517548 1.294751
31.778656 93.517548 1.595904
33.719345 93.517548 1.282451
35.660034 93.517548 1.820895
37.600723 93.517548 1.036564
39.541412 93.517548 1.555472
41.482101 93.517548 0.932620
43.422791 93.517548 1.021312
45.363480 93.517548 1.544758
47.304176 93.517548 1.049854
49.244865 93.517548 1.175683
51.185555 93.517548 1.138333
53.126244 93.517548 1.368508
55.066933 93.517548 1.735050
57.007622 93.517548 1.786417
58.948311 93.517548 0.000000
60.889008 93.517548 0.000000
62.829697 93.517548 0.000000
64.770386 93.517548 0.000000
66.711075 93.517548 0.000000
68.651764 93.517548 0.000000
70.592453 93.517548 1.070746
72.533142 93.517548 1.176920
74.473831 93.517548 0.991917
76.414520 93.517548 0.904388
78.355209 93.517548 1.262723
80.295898 93.517548 0.790158
82.236588 93.517548 1.007846
84.177277 93.517548 1.038837
86.117981 93.517548 1.124977
88.058670 93.517548 1.101209
89.999359 93.517548 0.964278
91.940048 93.517548 0.765352
93.880737 93.517548 1.304133
95.821426 93.517548 0.839862
97.762115 93.517548 0.611427
99.702805 93.517548 0.628564
101.643494 93.517548 0.745268
103.584183 93.517548 0.809215
105.524872 93.517548 0.947693
107.465561 93.517548 0.605995
109.406250 93.517548 0.599665
111.346939 93.517548 0.893805
113.287628 93.517548 0.735032
115.228333 93.517548 0.657491
117.169022 93.517548 0.609884
119.109711 93.517548 0.671955
121.050400 93.517548 1.183025
122.991089 93.517548 0.865970
124.931778 93.517548 0.888837
126.872467 93.517548 0.640204
128.813156 93.517548 0.569046
130.753845 93.517548 0.685929
132.694534 93.517548 0.780904
134.635223 93.517548 0.858708
136.575912 93.517548 0.732965
138.516602 93.517548 0.716166
140.457291 93.517548 0.000000
-55.552399 91.576859 14.144559
-53.611710 91.576859 12.237386
-51.671021 91.576859 9.038398
-49.730328 91.576859 10.817957
-47.789639 91.576859 5.287079
-45.848949 91.576859 1.589574
-43.908257 91.576859 2.706095
-41.967567 91.576859 1.386547
-40.026878 91.576859 1.152167
-38.086189 91.576859 0.000000
-36.145500 91.576859 0.000000
-34.204807 91.576859 0.000000
-32.264118 91.576859 0.000000
-30.323429 91.576859 0.000000
-28.382738 91.576859 0.000000
-26.442047 91.576859 0.000000
-24.501358 91.576859 0.000000
-22.560669 91.576859 0.000000
-20.619980 91.576859 0.000000
-18.679287 91.576859 0.000000
-16.738598 91.576859 0.569692
-14.797909 91.576859 0.645722
-12.857216 91.576859 0.674644
-10.916527 91.576859 0.967992
-8.975838 91.576859 0.987450
-7.035149 91.576859 0.946040
-5.094460 91.576859 1.048750
-3.153767 91.576859 1.395586
-1.213078 91.576859 1.746323
0.727612 91.576859 1.575886
2.668304 91.576859 1.414950
4.608994 91.576859 1.358701
6.549683 91.576859 1.256596
8.490372 91.576859 1.412218
10.431061 91.576859 1.724046
12.371750 91.576859 1.793939
14.312439 91.576859 4.268227
16.253136 91.576859 3.552317
18.193825 91.576859 0.833196
20.134514 91.576859 1.363270
22.075203 91.576859 1.350133
24.015892 91.576859 1.090840
25.956581 91.576859 1.133401
27.897270 91.576859 1.176294
29.837967 91.576859 1.286465
31.778656 91.576859 1.245669
33.719345 91.576859 1.115714
35.660034 91.576859 1.157557
37.600723 91.576859 1.078520
39.541412 91.576859 1.307496
41.482101 91.576859 0.944082
43.422791 91.576859 1.034668
45.363480 91.576859 0.947613
47.304176 91.576859 1.112942
49.244865 91.576859 0.881461
51.185555 91.576859 1.244857
53.126244 91.576859 1.127479
55.066933 91.576859 1.871143
57.007622 91.576859 1.318615
58.948311 91.576859 0.000000
60.889008 91.576859 0.000000
62.829697 91.576859 0.000000
64.770386 91.576859 0.000000
66.711075 91.576859 0.000000
68.651764 91.576859 0.000000
70.592453 91.576859 1.005917
72.533142 91.576859 0.848270
74.473831 91.576859 1.043482
76.414520 91.576859 0.990499
78.355209 91.576859 0.969889
80.295898 91.576859 1.084210
82.236588 91.576859 1.087669
84.177277 91.576859 1.133770
86.117981 91.576859 0.987820
88.058670 91.576859 1.011268
89.999359 91.576859 0.853773
91.940048 91.576859 0.813965
93.880737 91.576859 0.961115
95.821426 91.576859 0.937884
97.762115 91.576859 0.877423
99.702805 91.576859 0.727673
101.643494 91.576859 0.821831
103.584183 91.576859 0.769075
105.524872 91.576859 0.741392
107.465561 91.576859 0.662791
109.406250 91.576859 0.791621
111.346939 91.576859 0.649150
113.287628 91.576859 1.127570
115.228333 91.576859 0.715220
117.169022 91.576859 0.525775
119.109711 91.576859 0.547536
121.050400 91.576859 0.611926
122.991089 91.576859 0.578813
124.931778 91.576859 0.614114
126.872467 91.576859 0.637837
128.813156 91.576859 0.486701
130.753845 91.576859 0.750819
132.694534 91.576859 0.972594
134.635223 91.576859 0.797418
136.575912 91.576859 0.869451
138.516602 91.576859 0.732803
140.457291 91.576859 0.000000
-55.552399 89.636169 12.364935
-53.611710 89.636169 12.104813
-51.671021 89.636169 11.159728
-49.730328 89.636169 8.195872
-47.789639 89.636169 3.402629
-45.848949 89.636169 1.931150
-43.908257 89.636169 0.936783
-41.967567 89.636169 1.302788
-40.026878 89.636169 1.140605
-38.086189 89.636169 0.000000
-36.145500 89.636169 0.000000
-34.204807 89.636169 0.000000
-32.264118 89.636169 0.000000
-30.323429 89.636169 0.000000
-28.382738 89.636169 0.000000
-26.442047 89.636169 0.000000
-24.501358 89.636169 0.000000
-22.560669 89.636169 0.000000
-20.619980 89.636169 0.000000
-18.679287 89.636169 0.000000
-16.738598 89.636169 0.557803
-14.797909 89.636169 0.620685
-12.857216 89.636169 0.879199
-10.916527 89.636169 1.173972
-8.975838 89.636169 0.970200
-7.035149 89.636169 0.833593
-5.094460 89.636169 0.794875
-3.153767 89.636169 0.961584
-1.213078 89.636169 1.318565
0.727612 89.636169 0.783100
2.668304 89.636169 0.802446
4.608994 89.636169 1.058881
6.549683 89.636169 1.162099
8.490372 89.636169 1.022616
10.431061 89.636169 1.022324
12.371750 89.636169 1.012617
14.312439 89.636169 1.210078
16.253136 89.636169 0.952329
18.193825 89.636169 0.691228
20.134514 89.636169 0.947103
22.075203 89.636169 0.821074
24.015892 89.636169 0.860807
25.956581 89.636169 1.262511
27.897270 89.636169 1.060552
29.837967 89.636169 0.831156
31.778656 89.636169 0.770440
33.719345 89.636169 1.085155
35.660034 89.636169 0.921129
37.600723 89.636169 1.248828
39.541412 89.636169 1.126341
41.482101 89.636169 0.937972
43.422791 89.636169 1.020138
45.363480 89.636169 0.948388
47.304176 89.636169 1.165272
49.244865 89.636169 0.920001
51.185555 89.636169 1.097127
53.126244 89.636169 1.392165
55.066933 89.636169 1.984745
57.007622 89.636169 1.322081
58.948311 89.636169 0.000000
60.889008 89.636169 0.000000
62.829697 89.636169 0.000000
64.770386 89.636169 0.000000
66.711075 89.636169 0.000000
68.651764 89.636169 0.000000
70.592453 89.636169 0.738284
72.533142 89.636169 0.993644
74.473831 89.636169 1.068983
76.414520 89.636169 1.199487
78.355209 89.636169 1.965958
80.295898 89.636169 1.281014
82.236588 89.636169 1.215255
84.177277 89.636169 0.923085
86.117981 89.636169 0.923443
88.058670 89.636169 1.027946
89.999359 89.636169 0.883954
91.940048 89.636169 0.599063
93.880737 89.636169 0.818442
95.821426 89.636169 1.009973
97.762115 89.636169 0.785092
99.702805 89.636169 0.782819
101.643494 89.636169 0.651738
103.584183 89.636169 0.665218
105.524872 89.636169 0.815656
107.465561 89.636169 0.598013
109.406250 89.636169 0.619168
111.346939 89.636169 0.705841
113.287628 89.636169 0.837907
115.228333 89.636169 0.642100
117.169022 89.636169 0.653481
119.109711 89.636169 0.605649
121.050400 89.636169 0.691081
122.991089 89.636169 0.527873
124.931778 89.636169 0.615746
126.872467 89.636169 0.562678
128.813156 89.636169 0.658910
130.753845 89.636169 0.730430
132.694534 89.636169 0.685216
134.635223 89.636169 0.801823
136.575912 89.636169 0.865878
138.516602 89.636169 0.686496
140.457291 89.636169 0.000000
-55.552399 87.695480 11.010821
-53.611710 87.695480 12.276718
-51.671021 87.695480 10.128527
-49.730328 87.695480 5.722006
-47.789639 87.695480 1.307281
-45.848949 87.695480 1.608169
-43.908257 87.695480 1.324766
-41.967567 87.695480 1.163727
-40.026878 87.695480 0.981585
-38.086189 87.695480 0.000000
-36.145500 87.695480 0.000000
-34.204807 87.695480 0.000000
-32.264118 87.695480 0.000000
-30.323429 87.695480 0.000000
-28.382738 87.695480 0.000000
-26.442047 87.695480 0.000000
-24.501358 87.695480 0.000000
-22.560669 87.695480 0.000000
-20.619980 87.695480 0.000000
-18.679287 87.695480 0.000000
-16.738598 87.695480 0.627062
-14.797909 87.695480 0.491543
-12.857216 87.695480 0.702838
-10.916527 87.695480 0.862553
-8.975838 87.695480 0.942158
-7.035149 87.695480 0.959108
-5.094460 87.695480 0.800837
-3.153767 87.695480 0.961433
-1.213078 87.695480 1.087099
0.727612 87.695480 0.756746
2.668304 87.695480 0.532569
4.608994 87.695480 0.785461
6.549683 87.695480 0.923448
8.490372 87.695480 0.669260
10.431061 87.695480 0.900293
12.371750 87.695480 0.906092
14.312439 87.695480 1.151790
16.253136 87.695480 0.858284
18.193825 87.695480 0.813273
20.134514 87.695480 0.981655
22.075203 87.695480 0.737341
24.015892 87.695480 0.738025
25.956581 87.695480 0.860155
27.897270 87.695480 0.683621
29.837967 87.695480 0.846845
31.778656 87.695480 0.653421
33.719345 87.695480 0.676670
35.660034 87.695480 0.726272
37.600723 87.695480 0.829030
39.541412 87.695480 0.643850
41.482101 87.695480 0.544447
43.422791 87.695480 0.538145
45.363480 87.695480 0.911321
47.304176 87.695480 0.747787
49.244865 87.695480 0.638676
51.185555 87.695480 0.986485
53.126244 87.695480 1.214071
55.066933 87.695480 1.319722
57.007622 87.695480 1.406644
58.948311 87.695480 0.000000
60.889008 87.695480 0.000000
62.829697 87.695480 0.000000
64.770386 87.695480 0.000000
66.711075 87.695480 0.000000
68.651764 87.695480 0.000000
70.592453 87.695480 0.680107
72.533142 87.695480 0.907218
74.473831 87.695480 1.198664
76.414520 87.695480 1.277177
78.355209 87.695480 1.474348
80.295898 87.695480 1.310638
82.236588 87.695480 1.360614
84.177277 87.695480 1.024767
86.117981 87.695480 1.005493
88.058670 87.695480 0.921141
89.999359 87.695480 0.663513
91.940048 87.695480 0.854744
93.880737 87.695480 0.822417
95.821426 87.695480 0.822734
97.762115 87.695480 0.589682
99.702805 87.695480 0.587091
101.643494 87.695480 0.848877
103.584183 87.695480 0.909922
105.524872 87.695480 0.953121
107.465561 87.695480 0.703730
109.406250 87.695480 0.639966
111.346939 87.695480 0.771169
113.287628 87.695480 0.829632
115.228333 87.695480 0.773716
117.169022 87.695480 0.610614
119.109711 87.695480 0.873425
121.050400 87.695480 0.690093
122.991089 87.695480 0.709507
124.931778 87.695480 0.656067
126.872467 87.695480 0.537338
128.813156 87.695480 0.704237
130.753845 87.695480 0.544597
132.694534 87.695480 0.775085
134.635223 87.695480 0.614966
136.575912 87.695480 0.710948
138.516602 87.695480 0.698203
140.457291 87.695480 0.000000
-55.552399 85.754791 9.708324
-53.611710 85.754791 13.123256
-51.671021 85.754791 3.623393
-49.730328 85.754791 1.712876
-47.789639 85.754791 1.669630
-45.848949 85.754791 1.117473
-43.908257 85.754791 0.776212
-41.967567 85.754791 1.007581
-40.026878 85.754791 0.891017
-38.086189 85.754791 0.000000
-36.145500 85.754791 0.000000
-34.204807 85.754791 0.000000
-32.264118 85.754791 0.000000
-30.323429 85.754791 0.000000
-28.382738 85.754791 0.000000
-26.442047 85.754791 0.000000
-24.501358 85.754791 0.000000
-22.560669 85.754791 0.000000
-20.619980 85.754791 0.000000
-18.679287 85.754791 0.000000
-16.738598 85.754791 0.619196
-14.797909 85.754791 0.431723
-12.857216 85.754791 0.834816
-10.916527 85.754791 0.721235
-8.975838 85.754791 0.705383
-7.035149 85.754791 0.697299
-5.094460 85.754791 1.174641
-3.153767 85.754791 0.852550
-1.213078 85.754791 1.104455
0.727612 85.754791 0.776609
2.668304 85.754791 0.717764
4.608994 85.754791 0.767368
6.549683 85.754791 0.818468
8.490372 85.754791 0.786076
10.431061 85.754791 0.569831
12.371750 85.754791 0.568346
14.312439 85.754791 0.955703
16.253136 85.754791 1.037785
18.193825 85.754791 0.887727
20.134514 85.754791 1.106335
22.075203 85.754791 0.582351
24.015892 85.754791 0.612003
25.956581 85.754791 0.616369
27.897270 85.754791 0.656319
29.837967 85.754791 0.833433
31.778656 85.754791 0.602595
33.719345 85.754791 0.686951
35.660034 85.754791 0.678371
37.600723 85.754791 0.663363
39.541412 85.754791 0.747130
41.482101 85.754791 0.596829
43.422791 85.754791 0.622749
45.363480 85.754791 0.692802
47.304176 85.754791 0.758513
49.244865 85.754791 0.607929
51.185555 85.754791 0.646748
53.126244 85.754791 0.684436
55.066933 85.754791 0.973867
57.007622 85.754791 1.482863
58.948311 85.754791 0.000000
60.889008 85.754791 0.000000
62.829697 85.754791 0.000000
64.770386 85.754791 0.000000
66.711075 85.754791 0.000000
68.651764 85.754791 0.000000
70.592453 85.754791 0.785652
72.533142 85.754791 0.690159
74.473831 85.754791 0.860947
76.414520 85.754791 1.217161
78.355209 85.754791 0.783763
80.295898 85.754791 1.140766
82.236588 85.754791 1.360132
84.177277 85.754791 0.778641
86.117981 85.754791 1.045890
88.058670 85.754791 0.825386
89.999359 85.754791 0.676022
91.940048 85.754791 0.776572
93.880737 85.754791 0.840101
95.821426 85.754791 1.034908
97.762115 85.754791 0.661608
99.702805 85.754791 0.625892
101.643494 85.754791 0.929923
103.584183 85.754791 0.757898
105.524872 85.754791 1.031204
107.465561 85.754791 0.745773
109.406250 85.754791 0.687246
111.346939 85.754791 0.931989
113.287628 85.754791 0.705916
115.228333 85.754791 0.816478
117.169022 85.754791 0.761834