TITLE = "B00003"
VARIABLES = "position", "position(2)", "Length of Avg V"
ZONE T="Frame 1" I=102, J=78, F=POINT
-55.552399 103.221001 0.000000
-53.611710 103.221001 10.266004
-51.671021 103.221001 9.799161
-49.730328 103.221001 9.488945
-47.789639 103.221001 9.572593
-45.848949 103.221001 9.338818
-43.908257 103.221001 9.397531
-41.967567 103.221001 9.794272
-40.026878 103.221001 9.681434
-38.086189 103.221001 0.000000
-36.145500 103.221001 0.000000
-34.204807 103.221001 0.000000
-32.264118 103.221001 0.000000
-30.323429 103.221001 0.000000
-28.382738 103.221001 0.000000
-26.442047 103.221001 0.000000
-24.501358 103.221001 0.000000
-22.560669 103.221001 0.000000
-20.619980 103.221001 0.000000
-18.679287 103.221001 0.000000
-16.738598 103.221001 0.000000
-14.797909 103.221001 9.407424
-12.857216 103.221001 9.532300
-10.916527 103.221001 9.540893
-8.975838 103.221001 9.827323
-7.035149 103.221001 9.250433
-5.094460 103.221001 9.830767
-3.153767 103.221001 9.858004
-1.213078 103.221001 9.738264
0.727612 103.221001 9.782158
2.668304 103.221001 9.816487
4.608994 103.221001 9.916817
6.549683 103.221001 9.901249
8.490372 103.221001 9.738379
10.431061 103.221001 9.688829
12.371750 103.221001 9.199233
14.312439 103.221001 9.323850
16.253136 103.221001 9.654583
18.193825 103.221001 9.894749
20.134514 103.221001 9.430702
22.075203 103.221001 9.912896
24.015892 103.221001 9.729899
25.956581 103.221001 9.652082
27.897270 103.221001 9.300555
29.837967 103.221001 9.546068
31.778656 103.221001 9.670568
33.719345 103.221001 9.533770
35.660034 103.221001 9.625373
37.600723 103.221001 9.594812
39.541412 103.221001 9.401892
41.482101 103.221001 9.475873
43.422791 103.221001 9.716279
45.363480 103.221001 9.309260
47.304176 103.221001 9.528003
49.244865 103.221001 9.648855
51.185555 103.221001 9.627907
53.126244 103.221001 9.283064
55.066933 103.221001 9.462737
57.007622 103.221001 0.000000
58.948311 103.221001 0.000000
60.889008 103.221001 0.000000
62.829697 103.221001 0.000000
64.770386 103.221001 0.000000
66.711075 103.221001 0.000000
68.651764 103.221001 0.000000
70.592453 103.221001 0.000000
72.533142 103.221001 9.852138
74.473831 103.221001 9.616694
76.414520 103.221001 9.689143
78.355209 103.221001 9.766148
80.295898 103.221001 9.651544
82.236588 103.221001 9.590014
84.177277 103.221001 9.508659
86.117981 103.221001 9.678522
88.058670 103.221001 9.552165
89.999359 103.221001 9.608091
91.940048 103.221001 9.530690
93.880737 103.221001 9.758559
95.821426 103.221001 9.590572
97.762115 103.221001 9.583828
99.702805 103.221001 9.597958
101.643494 103.221001 9.925415
103.584183 103.221001 9.686134
105.524872 103.221001 9.698771
107.465561 103.221001 9.756999
109.406250 103.221001 9.575841
111.346939 103.221001 9.659693
113.287628 103.221001 9.732656
115.228333 103.221001 9.798742
117.169022 103.221001 9.826483
119.109711 103.221001 9.728237
121.050400 103.221001 9.767538
122.991089 103.221001 9.783749
124.931778 103.221001 9.467376
126.872467 103.221001 9.915290
128.813156 103.221001 9.662436
130.753845 103.221001 9.785143
132.694534 103.221001 9.710663
134.635223 103.221001 9.745953
136.575912 103.221001 9.719620
138.516602 103.221001 9.814281
140.457291 103.221001 0.000000
-55.552399 101.280312 8.154263
-53.611710 101.280312 10.481549
-51.671021 101.280312 9.828367
-49.730328 101.280312 9.492512
-47.789639 101.280312 9.287772
-45.848949 101.280312 9.876403
-43.908257 101.280312 9.460380
-41.967567 101.280312 9.648519
-40.026878 101.280312 9.764409
-38.086189 101.280312 0.000000
-36.145500 101.280312 0.000000
-34.204807 101.280312 0.000000
-32.264118 101.280312 0.000000
-30.323429 101.280312 0.000000
-28.382738 101.280312 0.000000
-26.442047 101.280312 0.000000
-24.501358 101.280312 0.000000
-22.560669 101.280312 0.000000
-20.619980 101.280312 0.000000
-18.679287 101.280312 0.000000
-16.738598 101.280312 0.000000
-14.797909 101.280312 9.499721
-12.857216 101.280312 9.606369
-10.916527 101.280312 9.631528
-8.975838 101.280312 9.665913
-7.035149 101.280312 9.444708
-5.094460 101.280312 9.733881
-3.153767 101.280312 9.856563
-1.213078 101.280312 9.702607
0.727612 101.280312 9.546251
2.668304 101.280312 9.760680
4.608994 101.280312 9.806516
6.549683 101.280312 9.646183
8.490372 101.280312 9.436438
10.431061 101.280312 9.472656
12.371750 101.280312 9.570527
14.312439 101.280312 9.562030
16.253136 101.280312 10.018473
18.193825 101.280312 9.727084
20.134514 101.280312 9.766120
22.075203 101.280312 9.742810
24.015892 101.280312 9.762893
25.956581 101.280312 9.846445
27.897270 101.280312 9.567677
29.837967 101.280312 9.725237
31.778656 101.280312 9.553041
33.719345 101.280312 9.551517
35.660034 101.280312 9.413447
37.600723 101.280312 9.689943
39.541412 101.280312 9.272446
41.482101 101.280312 9.790467
43.422791 101.280312 9.598442
45.363480 101.280312 9.544607
47.304176 101.280312 9.433660
49.244865 101.280312 9.372117
51.185555 101.280312 9.344277
53.126244 101.280312 9.645482
55.066933 101.280312 9.716077
57.007622 101.280312 9.789770
58.948311 101.280312 0.000000
60.889008 101.280312 0.000000
62.829697 101.280312 0.000000
64.770386 101.280312 0.000000
66.711075 101.280312 0.000000
68.651764 101.280312 0.000000
70.592453 101.280312 9.588523
72.533142 101.280312 9.470820
74.473831 101.280312 9.593521
76.414520 101.280312 9.712774
78.355209 101.280312 9.779118
80.295898 101.280312 9.736129
82.236588 101.280312 9.570727
84.177277 101.280312 9.576777
86.117981 101.280312 9.539116
88.058670 101.280312 9.711901
89.999359 101.280312 9.595889
91.940048 101.280312 9.706221
93.880737 101.280312 9.802740
95.821426 101.280312 9.563922
97.762115 101.280312 9.454364
99.702805 101.280312 9.566831
101.643494 101.280312 9.710690
103.584183 101.280312 9.721154
105.524872 101.280312 9.614572
107.465561 101.280312 9.500007
109.406250 101.280312 9.612319
111.346939 101.280312 9.703021
113.287628 101.280312 9.731976
115.228333 101.280312 9.688326
117.169022 101.280312 9.860792
119.109711 101.280312 9.887657
121.050400 101.280312 9.759110
122.991089 101.280312 9.753357
124.931778 101.280312 9.626969
126.872467 101.280312 9.747809
128.813156 101.280312 9.848680
130.753845 101.280312 9.632915
132.694534 101.280312 9.680232
134.635223 101.280312 9.624195
136.575912 101.280312 9.742248
138.516602 101.280312 9.628510
140.457291 101.280312 0.000000
-55.552399 99.339622 8.253679
-53.611710 99.339622 9.508177
-51.671021 99.339622 9.397990
-49.730328 99.339622 9.363290
-47.789639 99.339622 9.670470
-45.848949 99.339622 9.764612
-43.908257 99.339622 9.458963
-41.967567 99.339622 9.547569
-40.026878 99.339622 9.737801
-38.086189 99.339622 0.000000
-36.145500 99.339622 0.000000
-34.204807 99.339622 0.000000
-32.264118 99.339622 0.000000
-30.323429 99.339622 0.000000
-28.382738 99.339622 0.000000
-26.442047 99.339622 0.000000
-24.501358 99.339622 0.000000
-22.560669 99.339622 0.000000
-20.619980 99.339622 0.000000
-18.679287 99.339622 0.000000
-16.738598 99.339622 0.000000
-14.797909 99.339622 9.513600
-12.857216 99.339622 9.617387
-10.916527 99.339622 9.542187
-8.975838 99.339622 9.525993
-7.035149 99.339622 9.613199
-5.094460 99.339622 9.532780
-3.153767 99.339622 9.741314
-1.213078 99.339622 9.838316
0.727612 99.339622 9.963934
2.668304 99.339622 9.718724
4.608994 99.339622 9.679269
6.549683 99.339622 9.614020
8.490372 99.339622 9.922810
10.431061 99.339622 9.524039
12.371750 99.339622 9.577114
14.312439 99.339622 9.767307
16.253136 99.339622 10.181591
18.193825 99.339622 10.179261
20.134514 99.339622 9.430699
22.075203 99.339622 9.576002
24.015892 99.339622 9.429437
25.956581 99.339622 9.622361
27.897270 99.339622 9.417430
29.837967 99.339622 9.703351
31.778656 99.339622 9.834962
33.719345 99.339622 9.672533
35.660034 99.339622 9.926005
37.600723 99.339622 10.553925
39.541412 99.339622 9.895547
41.482101 99.339622 9.791352
43.422791 99.339622 9.698376
45.363480 99.339622 9.706882
47.304176 99.339622 9.596275
49.244865 99.339622 9.579133
51.185555 99.339622 9.978260
53.126244 99.339622 9.744993
55.066933 99.339622 9.645980
57.007622 99.339622 9.693558
58.948311 99.339622 0.000000
60.889008 99.339622 0.000000
62.829697 99.339622 0.000000
64.770386 99.339622 0.000000
66.711075 99.339622 0.000000
68.651764 99.339622 0.000000
70.592453 99.339622 9.641623
72.533142 99.339622 9.792987
74.473831 99.339622 9.686968
76.414520 99.339622 9.761839
78.355209 99.339622 9.778010
80.295898 99.339622 9.738279
82.236588 99.339622 9.404902
84.177277 99.339622 9.447243
86.117981 99.339622 9.660179
88.058670 99.339622 9.506535
89.999359 99.339622 9.437126
91.940048 99.339622 9.598604
93.880737 99.339622 9.583725
95.821426 99.339622 9.550262
97.762115 99.339622 9.652924
99.702805 99.339622 9.750357
101.643494 99.339622 9.689487
103.584183 99.339622 9.654819
105.524872 99.339622 9.688246
107.465561 99.339622 9.504660
109.406250 99.339622 9.654737
111.346939 99.339622 9.680123
113.287628 99.339622 9.721461
115.228333 99.339622 9.686709
117.169022 99.339622 9.660155
119.109711 99.339622 9.826272
121.050400 99.339622 9.705349
122.991089 99.339622 9.784149
124.931778 99.339622 9.887210
126.872467 99.339622 9.674686
128.813156 99.339622 9.556135
130.753845 99.339622 9.784364
132.694534 99.339622 9.770744
134.635223 99.339622 9.750033
136.575912 99.339622 9.601821
138.516602 99.339622 9.565171
140.457291 99.339622 0.000000
-55.552399 97.398933 9.918050
-53.611710 97.398933 9.681667
-51.671021 97.398933 9.884344
-49.730328 97.398933 9.242102
-47.789639 97.398933 9.782069
-45.848949 97.398933 9.571106
-43.908257 97.398933 9.546089
-41.967567 97.398933 9.440064
-40.026878 97.398933 9.554382
-38.086189 97.398933 0.000000
-36.145500 97.398933 0.000000
-34.204807 97.398933 0.000000
-32.264118 97.398933 0.000000
-30.323429 97.398933 0.000000
-28.382738 97.398933 0.000000
-26.442047 97.398933 0.000000
-24.501358 97.398933 0.000000
-22.560669 97.398933 0.000000
-20.619980 97.398933 0.000000
-18.679287 97.398933 0.000000
-16.738598 97.398933 0.000000
-14.797909 97.398933 9.617702
-12.857216 97.398933 9.507339
-10.916527 97.398933 9.537684
-8.975838 97.398933 9.569104
-7.035149 97.398933 9.664643
-5.094460 97.398933 9.670404
-3.153767 97.398933 9.726536
-1.213078 97.398933 9.707955
0.727612 97.398933 9.745151
2.668304 97.398933 9.887045
4.608994 97.398933 9.652130
6.549683 97.398933 9.351918
8.490372 97.398933 9.566071
10.431061 97.398933 9.787005
12.371750 97.398933 9.535711
14.312439 97.398933 9.916276
16.253136 97.398933 10.036303
18.193825 97.398933 9.309921
20.134514 97.398933 9.601517
22.075203 97.398933 9.885362
24.015892 97.398933 9.565598
25.956581 97.398933 9.514491
27.897270 97.398933 9.720409
29.837967 97.398933 9.688444
31.778656 97.398933 9.759984
33.719345 97.398933 9.863869
35.660034 97.398933 9.529958
37.600723 97.398933 10.457780
39.541412 97.398933 10.092419
41.482101 97.398933 10.073744
43.422791 97.398933 9.479953
45.363480 97.398933 10.051373
47.304176 97.398933 9.923737
49.244865 97.398933 9.734553
51.185555 97.398933 9.819753
53.126244 97.398933 9.764915
55.066933 97.398933 9.142358
57.007622 97.398933 9.785604
58.948311 97.398933 0.000000
60.889008 97.398933 0.000000
62.829697 97.398933 0.000000
64.770386 97.398933 0.000000
66.711075 97.398933 0.000000
68.651764 97.398933 0.000000
70.592453 97.398933 9.447030
72.533142 97.398933 9.916703
74.473831 97.398933 9.787779
76.414520 97.398933 9.682456
78.355209 97.398933 9.649358
80.295898 97.398933 9.630571
82.236588 97.398933 9.574121
84.177277 97.398933 9.456064
86.117981 97.398933 9.770827
88.058670 97.398933 9.513766
89.999359 97.398933 9.469991
91.940048 97.398933 9.496274
93.880737 97.398933 9.448030
95.821426 97.398933 9.625139
97.762115 97.398933 9.610023
99.702805 97.398933 9.738375
101.643494 97.398933 9.716393
103.584183 97.398933 9.595391
105.524872 97.398933 9.490975
107.465561 97.398933 9.609637
109.406250 97.398933 9.627283
111.346939 97.398933 9.727739
113.287628 97.398933 9.720164
115.228333 97.398933 9.658192
117.169022 97.398933 9.727126
119.109711 97.398933 9.706572
121.050400 97.398933 9.675784
122.991089 97.398933 9.646667
124.931778 97.398933 9.626623
126.872467 97.398933 9.527329
128.813156 97.398933 9.483706
130.753845 97.398933 9.843442
132.694534 97.398933 9.827942
134.635223 97.398933 9.758611
136.575912 97.398933 9.739300
138.516602 97.398933 9.578246
140.457291 97.398933 0.000000
-55.552399 95.458237 9.473500
-53.611710 95.458237 9.551744
-51.671021 95.458237 9.952239
-49.730328 95.458237 9.418145
-47.789639 95.458237 9.534988
-45.848949 95.458237 9.517785
-43.908257 95.458237 9.726264
-41.967567 95.458237 9.543786
-40.026878 95.458237 9.628429
-38.086189 95.458237 0.000000
-36.145500 95.458237 0.000000
-34.204807 95.458237 0.000000
-32.264118 95.458237 0.000000
-30.323429 95.458237 0.000000
-28.382738 95.458237 0.000000
-26.442047 95.458237 0.000000
-24.501358 95.458237 0.000000
-22.560669 95.458237 0.000000
-20.619980 95.458237 0.000000
-18.679287 95.458237 0.000000
-16.738598 95.458237 9.545092
-14.797909 95.458237 9.678530
-12.857216 95.458237 9.556994
-10.916527 95.458237 9.411822
-8.975838 95.458237 9.563946
-7.035149 95.458237 9.657263
-5.094460 95.458237 9.748564
-3.153767 95.458237 9.455171
-1.213078 95.458237 9.292418
0.727612 95.458237 9.675826
2.668304 95.458237 9.815465
4.608994 95.458237 10.028072
6.549683 95.458237 9.331767
8.490372 95.458237 9.308711
10.431061 95.458237 9.751285
12.371750 95.458237 9.981307
14.312439 95.458237 9.946700
16.253136 95.458237 9.645095
18.193825 95.458237 9.944408
20.134514 95.458237 9.913745
22.075203 95.458237 9.745821
24.015892 95.458237 9.223262
25.956581 95.458237 9.477475
27.897270 95.458237 9.689880
29.837967 95.458237 9.760702
31.778656 95.458237 9.916428
33.719345 95.458237 9.765360
35.660034 95.458237 9.786102
37.600723 95.458237 9.943891
39.541412 95.458237 9.639923
41.482101 95.458237 10.040518
43.422791 95.458237 9.731516
45.363480 95.458237 9.983768
47.304176 95.458237 9.926203
49.244865 95.458237 9.734053
51.185555 95.458237 9.709002
53.126244 95.458237 9.777607
55.066933 95.458237 9.513907
57.007622 95.458237 9.446810
58.948311 95.458237 0.000000
60.889008 95.458237 0.000000
62.829697 95.458237 0.000000
64.770386 95.458237 0.000000
66.711075 95.458237 0.000000
68.651764 95.458237 0.000000
70.592453 95.458237 9.827596
72.533142 95.458237 9.648298
74.473831 95.458237 9.612882
76.414520 95.458237 9.597986
78.355209 95.458237 9.707003
80.295898 95.458237 9.753936
82.236588 95.458237 9.662935
84.177277 95.458237 9.439403
86.117981 95.458237 9.729016
88.058670 95.458237 9.696805
89.999359 95.458237 9.580568
91.940048 95.458237 9.713082
93.880737 95.458237 9.605396
95.821426 95.458237 9.549532
97.762115 95.458237 9.573027
99.702805 95.458237 9.581759
101.643494 95.458237 9.691768
103.584183 95.458237 9.662875
105.524872 95.458237 9.766124
107.465561 95.458237 9.673521
109.406250 95.458237 9.716656
111.346939 95.458237 9.820877
113.287628 95.458237 9.885904
115.228333 95.458237 9.668900
117.169022 95.458237 9.660759
119.109711 95.458237 9.691803
121.050400 95.458237 9.831408
122.991089 95.458237 9.583967
124.931778 95.458237 9.664988
126.872467 95.458237 9.607649
128.813156 95.458237 9.609390
130.753845 95.458237 9.778780
132.694534 95.458237 9.764984
134.635223 95.458237 9.641780
136.575912 95.458237 9.687488
138.516602 95.458237 9.624081
140.457291 95.458237 0.000000
-55.552399 93.517548 6.326472
-53.611710 93.517548 11.045773
-51.671021 93.517548 9.228518
-49.730328 93.517548 9.878972
-47.789639 93.517548 9.405535
-45.848949 93.517548 9.770309
-43.908257 93.517548 9.605782
-41.967567 93.517548 9.345531
-40.026878 93.517548 9.628410
-38.086189 93.517548 0.000000
-36.145500 93.517548 0.000000
-34.204807 93.517548 0.000000
-32.264118 93.517548 0.000000
-30.323429 93.517548 0.000000
-28.382738 93.517548 0.000000
-26.442047 93.517548 0.000000
-24.501358 93.517548 0.000000
-22.560669 93.517548 0.000000
-20.619980 93.517548 0.000000
-18.679287 93.517548 0.000000
-16.738598 93.517548 9.496849
-14.797909 93.517548 9.699690
-12.857216 93.517548 9.675548
-10.916527 93.517548 9.586423
-8.975838 93.517548 9.724927
-7.035149 93.517548 9.649568
-5.094460 93.517548 9.320867
-3.153767 93.517548 9.608502
-1.213078 93.517548 10.024690
0.727612 93.517548 9.530085
2.668304 93.517548 9.535944
4.608994 93.517548 10.257023
6.549683 93.517548 9.697610
8.490372 93.517548 10.039558
10.431061 93.517548 9.336498
12.371750 93.517548 9.789683
14.312439 93.517548 9.319971
16.253136 93.517548 9.590651
18.193825 93.517548 9.980962
20.134514 93.517548 9.631004
22.075203 93.517548 9.753141
24.015892 93.517548 9.527584
25.956581 93.517548 9.400124
27.897270 93.517548 9.709214
29.837967 93.517548 9.889306
31.778656 93.517548 9.679982
33.719345 93.517548 9.737489
35.660034 93.517548 10.113681
37.600723 93.517548 9.704708
39.541412 93.517548 9.852999
41.482101 93.517548 9.807824
43.422791 93.517548 9.705921
45.363480 93.517548 9.687155
47.304176 93.517548 9.888333
49.244865 93.517548 9.647441
51.185555 93.517548 9.569997
53.126244 93.517548 9.662208
55.066933 93.517548 9.670479
57.007622 93.517548 9.593260
58.948311 93.517548 0.000000
60.889008 93.517548 0.000000
62.829697 93.517548 0.000000
64.770386 93.517548 0.000000
66.711075 93.517548 0.000000
68.651764 93.517548 0.000000
70.592453 93.517548 9.747282
72.533142 93.517548 9.707739
74.473831 93.517548 9.742734
76.414520 93.517548 9.659088
78.355209 93.517548 9.701768
80.295898 93.517548 9.764733
82.236588 93.517548 9.640763
84.177277 93.517548 9.400439
86.117981 93.517548 9.659425
88.058670 93.517548 9.831437
89.999359 93.517548 9.749543
91.940048 93.517548 9.684314
93.880737 93.517548 9.791466
95.821426 93.517548 9.497113
97.762115 93.517548 9.517028
99.702805 93.517548 9.650833
101.643494 93.517548 9.713389
103.584183 93.517548 9.816537
105.524872 93.517548 9.647578
107.465561 93.517548 9.652546
109.406250 93.517548 9.794266
111.346939 93.517548 9.743104
113.287628 93.517548 9.721775
115.228333 93.517548 9.693859
117.169022 93.517548 9.619861
119.109711 93.517548 9.611219
121.050400 93.517548 9.728541
122.991089 93.517548 9.785269
124.931778 93.517548 9.723489
126.872467 93.517548 9.690981
128.813156 93.517548 9.644052
130.753845 93.517548 9.727941
132.694534 93.517548 9.758468
134.635223 93.517548 9.615377
136.575912 93.517548 9.598392
138.516602 93.517548 9.583682
140.457291 93.517548 0.000000
-55.552399 91.576859 8.066799
-53.611710 91.576859 7.916914
-51.671021 91.576859 9.749969
-49.730328 91.576859 9.369271
-47.789639 91.576859 9.553372
-45.848949 91.576859 9.384874
-43.908257 91.576859 9.634489
-41.967567 91.576859 9.461386
-40.026878 91.576859 9.653147
-38.086189 91.576859 0.000000
-36.145500 91.576859 0.000000
-34.204807 91.576859 0.000000
-32.264118 91.576859 0.000000
-30.323429 91.576859 0.000000
-28.382738 91.576859 0.000000
-26.442047 91.576859 0.000000
-24.501358 91.576859 0.000000
-22.560669 91.576859 0.000000
-20.619980 91.576859 0.000000
-18.679287 91.576859 0.000000
-16.738598 91.576859 9.347502
-14.797909 91.576859 9.669228
-12.857216 91.576859 9.647706
-10.916527 91.576859 9.670556
-8.975838 91.576859 9.502495
-7.035149 91.576859 9.627187
-5.094460 91.576859 9.496037
-3.153767 91.576859 9.611241
-1.213078 91.576859 9.702881
0.727612 91.576859 9.904030
2.668304 91.576859 9.730008
4.608994 91.576859 9.659095
6.549683 91.576859 9.516961
8.490372 91.576859 9.823842
10.431061 91.576859 9.518497
12.371750 91.576859 9.571677
14.312439 91.576859 9.580236
16.253136 91.576859 9.784656
18.193825 91.576859 10.038129
20.134514 91.576859 9.648834
22.075203 91.576859 9.584810
24.015892 91.576859 9.734596
25.956581 91.576859 9.695067
27.897270 91.576859 9.791275
29.837967 91.576859 9.883462
31.778656 91.576859 9.544828
33.719345 91.576859 9.635952
35.660034 91.576859 9.681768
37.600723 91.576859 9.580932
39.541412 91.576859 9.683053
41.482101 91.576859 9.801195
43.422791 91.576859 9.505230
45.363480 91.576859 9.568654
47.304176 91.576859 9.684173
49.244865 91.576859 9.540264
51.185555 91.576859 9.739022
53.126244 91.576859 9.830294
55.066933 91.576859 9.735468
57.007622 91.576859 9.674850
58.948311 91.576859 0.000000
60.889008 91.576859 0.000000
62.829697 91.576859 0.000000
64.770386 91.576859 0.000000
66.711075 91.576859 0.000000
68.651764 91.576859 0.000000
70.592453 91.576859 9.708923
72.533142 91.576859 9.637400
74.473831 91.576859 9.695775
76.414520 91.576859 9.656167
78.355209 91.576859 9.674518
80.295898 91.576859 9.709518
82.236588 91.576859 9.705978
84.177277 91.576859 9.627925
86.117981 91.576859 9.720881
88.058670 91.576859 9.836124
89.999359 91.576859 9.723119
91.940048 91.576859 9.652410
93.880737 91.576859 9.718502
95.821426 91.576859 9.464030
97.762115 91.576859 9.760363
99.702805 91.576859 9.780206
101.643494 91.576859 9.879437
103.584183 91.576859 9.788548
105.524872 91.576859 9.619015
107.465561 91.576859 9.667487
109.406250 91.576859 9.715510
111.346939 91.576859 9.662231
113.287628 91.576859 9.571584
115.228333 91.576859 9.802713
117.169022 91.576859 9.555699
119.109711 91.576859 9.581252
121.050400 91.576859 9.741360
122.991089 91.576859 9.672807
124.931778 91.576859 9.529449
126.872467 91.576859 9.670912
128.813156 91.576859 9.638975
130.753845 91.576859 9.531749
132.694534 91.576859 9.843966
134.635223 91.576859 9.640417
136.575912 91.576859 9.588754
138.516602 91.576859 9.579295
140.457291 91.576859 0.000000
-55.552399 89.636169 8.080130
-53.611710 89.636169 9.717221
-51.671021 89.636169 9.480742
-49.730328 89.636169 9.372610
-47.789639 89.636169 9.435575
-45.848949 89.636169 9.320996
-43.908257 89.636169 9.703632
-41.967567 89.636169 9.453622
-40.026878 89.636169 9.531299
-38.086189 89.636169 0.000000
-36.145500 89.636169 0.000000
-34.204807 89.636169 0.000000
-32.264118 89.636169 0.000000
-30.323429 89.636169 0.000000
-28.382738 89.636169 0.000000
-26.442047 89.636169 0.000000
-24.501358 89.636169 0.000000
-22.560669 89.636169 0.000000
-20.619980 89.636169 0.000000
-18.679287 89.636169 0.000000
-16.738598 89.636169 9.453190
-14.797909 89.636169 9.630214
-12.857216 89.636169 9.667327
-10.916527 89.636169 9.623128
-8.975838 89.636169 9.605937
-7.035149 89.636169 9.630995
-5.094460 89.636169 9.598909
-3.153767 89.636169 9.540145
-1.213078 89.636169 9.555026
0.727612 89.636169 9.721557
2.668304 89.636169 9.640671
4.608994 89.636169 9.632672
6.549683 89.636169 9.452876
8.490372 89.636169 9.821711
10.431061 89.636169 9.720923
12.371750 89.636169 9.637306
14.312439 89.636169 9.601714
16.253136 89.636169 9.670610
18.193825 89.636169 9.738535
20.134514 89.636169 9.837539
22.075203 89.636169 9.579371
24.015892 89.636169 9.638108
25.956581 89.636169 9.754726
27.897270 89.636169 9.651007
29.837967 89.636169 9.738441
31.778656 89.636169 9.655983
33.719345 89.636169 9.568365
35.660034 89.636169 9.613823
37.600723 89.636169 9.708447
39.541412 89.636169 9.701698
41.482101 89.636169 9.644882
43.422791 89.636169 9.733421
45.363480 89.636169 9.550191
47.304176 89.636169 9.557631
49.244865 89.636169 9.580314
51.185555 89.636169 9.895344
53.126244 89.636169 9.648960
55.066933 89.636169 9.619429
57.007622 89.636169 10.014010
58.948311 89.636169 0.000000
60.889008 89.636169 0.000000
62.829697 89.636169 0.000000
64.770386 89.636169 0.000000
66.711075 89.636169 0.000000
68.651764 89.636169 0.000000
70.592453 89.636169 9.674539
72.533142 89.636169 9.596476
74.473831 89.636169 9.411832
76.414520 89.636169 9.826901
78.355209 89.636169 9.713779
80.295898 89.636169 9.739469
82.236588 89.636169 9.700581
84.177277 89.636169 9.603793
86.117981 89.636169 9.628567
88.058670 89.636169 9.608078
89.999359 89.636169 9.572478
91.940048 89.636169 9.658588
93.880737 89.636169 9.717978
95.821426 89.636169 9.680685
97.762115 89.636169 9.774694
99.702805 89.636169 9.672717
101.643494 89.636169 9.797614
103.584183 89.636169 9.664962
105.524872 89.636169 9.716907
107.465561 89.636169 9.716356
109.406250 89.636169 9.785515
111.346939 89.636169 9.729371
113.287628 89.636169 9.700754
115.228333 89.636169 9.630500
117.169022 89.636169 9.613230
119.109711 89.636169 9.677004
121.050400 89.636169 9.808372
122.991089 89.636169 9.717717
124.931778 89.636169 9.584141
126.872467 89.636169 9.668056
128.813156 89.636169 9.593346
130.753845 89.636169 9.625883
132.694534 89.636169 9.576847
134.635223 89.636169 9.749172
136.575912 89.636169 9.642058
138.516602 89.636169 9.713006
140.457291 89.636169 0.000000
-55.552399 87.695480 11.072127
-53.611710 87.695480 10.037411
-51.671021 87.695480 9.931570
-49.730328 87.695480 9.581638
-47.789639 87.695480 9.461516
-45.848949 87.695480 9.666129
-43.908257 87.695480 9.735363
-41.967567 87.695480 9.372268
-40.026878 87.695480 9.424242
-38.086189 87.695480 9.338299
-36.145500 87.695480 0.000000
-34.204807 87.695480 0.000000
-32.264118 87.695480 0.000000
-30.323429 87.695480 0.000000
-28.382738 87.695480 0.000000
-26.442047 87.695480 0.000000
-24.501358 87.695480 0.000000
-22.560669 87.695480 0.000000
-20.619980 87.695480 0.000000
-18.679287 87.695480 0.000000
-16.738598 87.695480 9.587406
-14.797909 87.695480 9.602378
-12.857216 87.695480 9.710381
-10.916527 87.695480 9.459899
-8.975838 87.695480 9.569880
-7.035149 87.695480 9.580309
-5.094460 87.695480 9.627615
-3.153767 87.695480 9.701725
-1.213078 87.695480 9.758992
0.727612 87.695480 9.722570
2.668304 87.695480 9.748525
4.608994 87.695480 9.702088
6.549683 87.695480 9.823367
8.490372 87.695480 9.927702
10.431061 87.695480 9.890062
12.371750 87.695480 9.773905
14.312439 87.695480 9.705486
16.253136 87.695480 9.706605
18.193825 87.695480 9.657184
20.134514 87.695480 9.869244
22.075203 87.695480 9.484613
24.015892 87.695480 9.597679
25.956581 87.695480 9.828348
27.897270 87.695480 9.693112
29.837967 87.695480 9.716333
31.778656 87.695480 9.759584
33.719345 87.695480 9.652436
35.660034 87.695480 9.544950
37.600723 87.695480 9.807745
39.541412 87.695480 9.641648
41.482101 87.695480 9.802023
43.422791 87.695480 9.796231
45.363480 87.695480 9.747057
47.304176 87.695480 9.713080
49.244865 87.695480 9.568547
51.185555 87.695480 9.610969
53.126244 87.695480 9.635527
55.066933 87.695480 9.922316
57.007622 87.695480 9.809235
58.948311 87.695480 0.000000
60.889008 87.695480 0.000000
62.829697 87.695480 0.000000
64.770386 87.695480 0.000000
66.711075 87.695480 0.000000
68.651764 87.695480 0.000000
70.592453 87.695480 9.535333
72.533142 87.695480 9.590356
74.473831 87.695480 9.355029
76.414520 87.695480 9.666661
78.355209 87.695480 9.608669
80.295898 87.695480 9.714340
82.236588 87.695480 9.741347
84.177277 87.695480 9.577615
86.117981 87.695480 9.493316
88.058670 87.695480 9.632471
89.999359 87.695480 9.484424
91.940048 87.695480 9.617534
93.880737 87.695480 9.721834
95.821426 87.695480 9.762784
97.762115 87.695480 9.679900
99.702805 87.695480 9.640356
101.643494 87.695480 9.688322
103.584183 87.695480 9.618036
105.524872 87.695480 9.663641
107.465561 87.695480 9.653238
109.406250 87.695480 9.624178
111.346939 87.695480 9.706812
113.287628 87.695480 9.694051
115.228333 87.695480 9.420332
117.169022 87.695480 9.662215
119.109711 87.695480 9.708839
121.050400 87.695480 9.780985
122.991089 87.695480 9.550518
124.931778 87.695480 9.582651
126.872467 87.695480 9.545008
128.813156 87.695480 9.616667
130.753845 87.695480 9.702563
132.694534 87.695480 9.638711
134.635223 87.695480 9.570248
136.575912 87.695480 9.586668
138.516602 87.695480 9.766779
140.457291 87.695480 0.000000
-55.552399 85.754791 10.433905
-53.611710 85.754791 10.185713
-51.671021 85.754791 9.634965
-49.730328 85.754791 9.523290
-47.789639 85.754791 9.445511
-45.848949 85.754791 9.612572
-43.908257 85.754791 9.567505
-41.967567 85.754791 9.409795
-40.026878 85.754791 9.501992
-38.086189 85.754791 9.475438
-36.145500 85.754791 0.000000
-34.204807 85.754791 0.000000
-32.264118 85.754791 0.000000
-30.323429 85.754791 0.000000
-28.382738 85.754791 0.000000
-26.442047 85.754791 0.000000
-24.501358 85.754791 0.000000
-22.560669 85.754791 0.000000
-20.619980 85.754791 0.000000
-18.679287 85.754791 0.000000
-16.738598 85.754791 9.578008
-14.797909 85.754791 9.650511
-12.857216 85.754791 9.784242
-10.916527 85.754791 9.690363
-8.975838 85.754791 9.596214
-7.035149 85.754791 9.644785
-5.094460 85.754791 9.703398
-3.153767 85.754791 9.859789
-1.213078 85.754791 9.640342
0.727612 85.754791 9.768953
2.668304 85.754791 9.746139
4.608994 85.754791 9.647228
6.549683 85.754791 9.684344
8.490372 85.754791 9.766934
10.431061 85.754791 9.791565
12.371750 85.754791 9.717859
14.312439 85.754791 9.563016
16.253136 85.754791 9.722003
18.193825 85.754791 9.692120
20.134514 85.754791 9.745347
22.075203 85.754791 9.674087
24.015892 85.754791 9.678481
25.956581 85.754791 9.770565
27.897270 85.754791 9.835616
29.837967 85.754791 9.758536
31.778656 85.754791 9.703768
33.719345 85.754791 9.677119
35.660034 85.754791 9.666995
37.600723 85.754791 9.718394
39.541412 85.754791 9.745016
41.482101 85.754791 9.789989
43.422791 85.754791 9.683128
45.363480 85.754791 9.850478
47.304176 85.754791 9.735409
49.244865 85.754791 9.695826
51.185555 85.754791 9.877547
53.126244 85.754791 9.670111
55.066933 85.754791 9.700484
57.007622 85.754791 9.588989
58.948311 85.754791 0.000000
60.889008 85.754791 0.000000
62.829697 85.754791 0.000000
64.770386 85.754791 0.000000
66.711075 85.754791 0.000000
68.651764 85.754791 0.000000
70.592453 85.754791 9.596282
72.533142 85.754791 9.593949
74.473831 85.754791 9.584901
76.414520 85.754791 9.646959
78.355209 85.754791 9.571537
80.295898 85.754791 9.642061
82.236588 85.754791 9.742498
84.177277 85.754791 9.583042
86.117981 85.754791 9.674707
88.058670 85.754791 9.623144
89.999359 85.754791 9.669570
91.940048 85.754791 9.459030
93.880737 85.754791 9.697174
95.821426 85.754791 9.663293
97.762115 85.754791 9.654299
99.702805 85.754791 9.643076
101.643494 85.754791 9.641593
103.584183 85.754791 9.632677
105.524872 85.754791 9.698786
107.465561 85.754791 9.575729
109.406250 85.754791 9.702461
111.346939 85.754791 9.588131
113.287628 85.754791 9.553582
115.228333 85.754791 9.698083
117.169022 85.754791 9.639312
119.109711 85.754791 9.744028