TITLE = "B00006"
VARIABLES = "position", "position(2)", "Length of RMS V"
ZONE T="Frame 1" I=102, J=78, F=POINT
-55.552399 103.221001 0.000000
-53.611710 103.221001 2.741754
-51.671021 103.221001 1.808685
-49.730328 103.221001 1.522067
-47.789639 103.221001 1.545193
-45.848949 103.221001 1.148025
-43.908257 103.221001 1.202102
-41.967567 103.221001 0.859594
-40.026878 103.221001 1.011228
-38.086189 103.221001 0.000000
-36.145500 103.221001 0.000000
-34.204807 103.221001 0.000000
-32.264118 103.221001 0.000000
-30.323429 103.221001 0.000000
-28.382738 103.221001 0.000000
-26.442047 103.221001 0.000000
-24.501358 103.221001 0.000000
-22.560669 103.221001 0.000000
-20.619980 103.221001 0.000000
-18.679287 103.221001 0.000000
-16.738598 103.221001 0.000000
-14.797909 103.221001 0.640708
-12.857216 103.221001 0.478480
-10.916527 103.221001 0.529344
-8.975838 103.221001 0.768735
-7.035149 103.221001 1.382060
-5.094460 103.221001 0.887327
-3.153767 103.221001 1.177672
-1.213078 103.221001 1.477928
0.727612 103.221001 1.483330
2.668304 103.221001 1.487261
4.608994 103.221001 1.148012
6.549683 103.221001 1.373037
8.490372 103.221001 1.427748
10.431061 103.221001 1.159910
12.371750 103.221001 1.452622
14.312439 103.221001 1.631939
16.253136 103.221001 1.869026
18.193825 103.221001 1.613039
20.134514 103.221001 1.594498
22.075203 103.221001 1.328619
24.015892 103.221001 0.915194
25.956581 103.221001 1.007258
27.897270 103.221001 1.364613
29.837967 103.221001 1.048290
31.778656 103.221001 1.472701
33.719345 103.221001 1.520307
35.660034 103.221001 1.350865
37.600723 103.221001 1.359101
39.541412 103.221001 1.566119
41.482101 103.221001 1.429743
43.422791 103.221001 1.733974
45.363480 103.221001 1.635557
47.304176 103.221001 1.267472
49.244865 103.221001 1.199163
51.185555 103.221001 0.833721
53.126244 103.221001 0.795147
55.066933 103.221001 0.936819
57.007622 103.221001 0.000000
58.948311 103.221001 0.000000
60.889008 103.221001 0.000000
62.829697 103.221001 0.000000
64.770386 103.221001 0.000000
66.711075 103.221001 0.000000
68.651764 103.221001 0.000000
70.592453 103.221001 0.000000
72.533142 103.221001 0.691180
74.473831 103.221001 0.788687
76.414520 103.221001 0.714753
78.355209 103.221001 0.612721
80.295898 103.221001 0.716792
82.236588 103.221001 0.745908
84.177277 103.221001 0.777748
86.117981 103.221001 0.899741
88.058670 103.221001 1.010684
89.999359 103.221001 0.751267
91.940048 103.221001 0.921801
93.880737 103.221001 1.037154
95.821426 103.221001 0.639038
97.762115 103.221001 0.941070
99.702805 103.221001 0.626426
101.643494 103.221001 0.642666
103.584183 103.221001 0.535478
105.524872 103.221001 0.550495
107.465561 103.221001 0.574417
109.406250 103.221001 0.527717
111.346939 103.221001 0.527675
113.287628 103.221001 0.731598
115.228333 103.221001 0.672379
117.169022 103.221001 0.650727
119.109711 103.221001 0.671893
121.050400 103.221001 0.772596
122.991089 103.221001 0.794615
124.931778 103.221001 0.845502
126.872467 103.221001 1.039904
128.813156 103.221001 0.708354
130.753845 103.221001 0.755736
132.694534 103.221001 0.642407
134.635223 103.221001 0.535519
136.575912 103.221001 0.720135
138.516602 103.221001 0.774181
140.457291 103.221001 0.000000
-55.552399 101.280312 4.749591
-53.611710 101.280312 4.038797
-51.671021 101.280312 1.061951
-49.730328 101.280312 1.182613
-47.789639 101.280312 1.251598
-45.848949 101.280312 1.003324
-43.908257 101.280312 0.995573
-41.967567 101.280312 0.716872
-40.026878 101.280312 0.832628
-38.086189 101.280312 0.000000
-36.145500 101.280312 0.000000
-34.204807 101.280312 0.000000
-32.264118 101.280312 0.000000
-30.323429 101.280312 0.000000
-28.382738 101.280312 0.000000
-26.442047 101.280312 0.000000
-24.501358 101.280312 0.000000
-22.560669 101.280312 0.000000
-20.619980 101.280312 0.000000
-18.679287 101.280312 0.000000
-16.738598 101.280312 0.000000
-14.797909 101.280312 0.493895
-12.857216 101.280312 0.437006
-10.916527 101.280312 0.391580
-8.975838 101.280312 0.634295
-7.035149 101.280312 0.878587
-5.094460 101.280312 0.843838
-3.153767 101.280312 0.984903
-1.213078 101.280312 1.154449
0.727612 101.280312 1.270010
2.668304 101.280312 1.368385
4.608994 101.280312 1.229675
6.549683 101.280312 1.077750
8.490372 101.280312 1.077971
10.431061 101.280312 1.042322
12.371750 101.280312 1.132365
14.312439 101.280312 1.273191
16.253136 101.280312 1.247310
18.193825 101.280312 1.559726
20.134514 101.280312 1.703582
22.075203 101.280312 1.106484
24.015892 101.280312 0.955196
25.956581 101.280312 1.029539
27.897270 101.280312 1.131740
29.837967 101.280312 1.041641
31.778656 101.280312 1.021115
33.719345 101.280312 1.159016
35.660034 101.280312 1.439676
37.600723 101.280312 1.450859
39.541412 101.280312 1.024448
41.482101 101.280312 1.633113
43.422791 101.280312 1.206177
45.363480 101.280312 1.143001
47.304176 101.280312 1.316505
49.244865 101.280312 1.178598
51.185555 101.280312 1.198794
53.126244 101.280312 0.751343
55.066933 101.280312 1.017835
57.007622 101.280312 0.808709
58.948311 101.280312 0.000000
60.889008 101.280312 0.000000
62.829697 101.280312 0.000000
64.770386 101.280312 0.000000
66.711075 101.280312 0.000000
68.651764 101.280312 0.000000
70.592453 101.280312 0.743457
72.533142 101.280312 0.867297
74.473831 101.280312 0.830602
76.414520 101.280312 0.654586
78.355209 101.280312 0.532688
80.295898 101.280312 0.483943
82.236588 101.280312 0.635993
84.177277 101.280312 0.633109
86.117981 101.280312 0.600125
88.058670 101.280312 0.742498
89.999359 101.280312 0.783502
91.940048 101.280312 0.793178
93.880737 101.280312 0.860678
95.821426 101.280312 0.736878
97.762115 101.280312 0.432661
99.702805 101.280312 0.499931
101.643494 101.280312 0.515719
103.584183 101.280312 0.501622
105.524872 101.280312 0.608482
107.465561 101.280312 0.526251
109.406250 101.280312 0.453629
111.346939 101.280312 0.398802
113.287628 101.280312 0.523022
115.228333 101.280312 0.650047
117.169022 101.280312 0.475505
119.109711 101.280312 0.654983
121.050400 101.280312 0.609988
122.991089 101.280312 0.638762
124.931778 101.280312 0.624155
126.872467 101.280312 0.623921
128.813156 101.280312 0.537925
130.753845 101.280312 0.712384
132.694534 101.280312 0.520498
134.635223 101.280312 0.635484
136.575912 101.280312 0.588701
138.516602 101.280312 0.408031
140.457291 101.280312 0.000000
-55.552399 99.339622 8.069228
-53.611710 99.339622 4.512036
-51.671021 99.339622 3.119391
-49.730328 99.339622 1.077294
-47.789639 99.339622 1.074171
-45.848949 99.339622 1.046626
-43.908257 99.339622 0.890598
-41.967567 99.339622 0.978871
-40.026878 99.339622 0.945419
-38.086189 99.339622 0.000000
-36.145500 99.339622 0.000000
-34.204807 99.339622 0.000000
-32.264118 99.339622 0.000000
-30.323429 99.339622 0.000000
-28.382738 99.339622 0.000000
-26.442047 99.339622 0.000000
-24.501358 99.339622 0.000000
-22.560669 99.339622 0.000000
-20.619980 99.339622 0.000000
-18.679287 99.339622 0.000000
-16.738598 99.339622 0.000000
-14.797909 99.339622 0.395952
-12.857216 99.339622 0.487681
-10.916527 99.339622 0.589664
-8.975838 99.339622 0.549569
-7.035149 99.339622 0.533591
-5.094460 99.339622 0.924265
-3.153767 99.339622 0.866193
-1.213078 99.339622 0.926478
0.727612 99.339622 0.866038
2.668304 99.339622 1.117800
4.608994 99.339622 1.313865
6.549683 99.339622 0.966543
8.490372 99.339622 0.955453
10.431061 99.339622 0.947396
12.371750 99.339622 1.183471
14.312439 99.339622 1.307096
16.253136 99.339622 1.342850
18.193825 99.339622 1.446407
20.134514 99.339622 1.438681
22.075203 99.339622 1.305924
24.015892 99.339622 0.974601
25.956581 99.339622 1.171639
27.897270 99.339622 0.821351
29.837967 99.339622 0.936220
31.778656 99.339622 1.240192
33.719345 99.339622 1.433191
35.660034 99.339622 1.440941
37.600723 99.339622 1.684760
39.541412 99.339622 1.516669
41.482101 99.339622 1.228033
43.422791 99.339622 1.106548
45.363480 99.339622 1.187971
47.304176 99.339622 1.281468
49.244865 99.339622 1.530177
51.185555 99.339622 1.589496
53.126244 99.339622 1.019403
55.066933 99.339622 1.544687
57.007622 99.339622 0.960031
58.948311 99.339622 0.000000
60.889008 99.339622 0.000000
62.829697 99.339622 0.000000
64.770386 99.339622 0.000000
66.711075 99.339622 0.000000
68.651764 99.339622 0.000000
70.592453 99.339622 0.923840
72.533142 99.339622 0.955581
74.473831 99.339622 0.971310
76.414520 99.339622 0.790383
78.355209 99.339622 0.652771
80.295898 99.339622 0.632605
82.236588 99.339622 0.607566
84.177277 99.339622 0.512629
86.117981 99.339622 0.583824
88.058670 99.339622 0.692963
89.999359 99.339622 0.577633
91.940048 99.339622 0.596761
93.880737 99.339622 0.748147
95.821426 99.339622 0.730218
97.762115 99.339622 0.497939
99.702805 99.339622 0.505541
101.643494 99.339622 0.597132
103.584183 99.339622 0.650750
105.524872 99.339622 0.683375
107.465561 99.339622 0.672119
109.406250 99.339622 0.534371
111.346939 99.339622 0.443814
113.287628 99.339622 0.443190
115.228333 99.339622 0.537581
117.169022 99.339622 0.469359
119.109711 99.339622 0.489537
121.050400 99.339622 0.649367
122.991089 99.339622 0.468430
124.931778 99.339622 0.469486
126.872467 99.339622 0.514556
128.813156 99.339622 0.524728
130.753845 99.339622 0.618592
132.694534 99.339622 0.521321
134.635223 99.339622 0.485953
136.575912 99.339622 0.537387
138.516602 99.339622 0.536934
140.457291 99.339622 0.000000
-55.552399 97.398933 6.699139
-53.611710 97.398933 6.152886
-51.671021 97.398933 4.531645
-49.730328 97.398933 1.100057
-47.789639 97.398933 0.728321
-45.848949 97.398933 0.782189
-43.908257 97.398933 1.027512
-41.967567 97.398933 0.920863
-40.026878 97.398933 0.844443
-38.086189 97.398933 0.000000
-36.145500 97.398933 0.000000
-34.204807 97.398933 0.000000
-32.264118 97.398933 0.000000
-30.323429 97.398933 0.000000
-28.382738 97.398933 0.000000
-26.442047 97.398933 0.000000
-24.501358 97.398933 0.000000
-22.560669 97.398933 0.000000
-20.619980 97.398933 0.000000
-18.679287 97.398933 0.000000
-16.738598 97.398933 0.000000
-14.797909 97.398933 0.513475
-12.857216 97.398933 0.445126
-10.916527 97.398933 0.463113
-8.975838 97.398933 0.479073
-7.035149 97.398933 0.455710
-5.094460 97.398933 0.732419
-3.153767 97.398933 0.656215
-1.213078 97.398933 1.001199
0.727612 97.398933 0.799336
2.668304 97.398933 0.942702
4.608994 97.398933 1.204859
6.549683 97.398933 1.093267
8.490372 97.398933 1.257075
10.431061 97.398933 1.293020
12.371750 97.398933 1.224971
14.312439 97.398933 1.410953
16.253136 97.398933 1.282823
18.193825 97.398933 1.370436
20.134514 97.398933 1.608478
22.075203 97.398933 1.250263
24.015892 97.398933 0.848940
25.956581 97.398933 1.059768
27.897270 97.398933 0.968983
29.837967 97.398933 1.022595
31.778656 97.398933 1.186991
33.719345 97.398933 1.246269
35.660034 97.398933 1.724337
37.600723 97.398933 1.916388
39.541412 97.398933 1.228403
41.482101 97.398933 1.522711
43.422791 97.398933 0.888652
45.363480 97.398933 1.204283
47.304176 97.398933 1.204194
49.244865 97.398933 1.116634
51.185555 97.398933 1.378701
53.126244 97.398933 1.539954
55.066933 97.398933 1.604829
57.007622 97.398933 1.486312
58.948311 97.398933 0.000000
60.889008 97.398933 0.000000
62.829697 97.398933 0.000000
64.770386 97.398933 0.000000
66.711075 97.398933 0.000000
68.651764 97.398933 0.000000
70.592453 97.398933 0.851620
72.533142 97.398933 0.841358
74.473831 97.398933 0.718568
76.414520 97.398933 0.781051
78.355209 97.398933 0.632224
80.295898 97.398933 0.664435
82.236588 97.398933 0.615065
84.177277 97.398933 0.772975
86.117981 97.398933 0.774229
88.058670 97.398933 0.650168
89.999359 97.398933 0.595805
91.940048 97.398933 0.688052
93.880737 97.398933 0.609793
95.821426 97.398933 0.479834
97.762115 97.398933 0.613638
99.702805 97.398933 0.548825
101.643494 97.398933 0.606841
103.584183 97.398933 0.500359
105.524872 97.398933 0.630235
107.465561 97.398933 0.532497
109.406250 97.398933 0.497982
111.346939 97.398933 0.506524
113.287628 97.398933 0.473403
115.228333 97.398933 0.499271
117.169022 97.398933 0.521727
119.109711 97.398933 0.472700
121.050400 97.398933 0.655621
122.991089 97.398933 0.571776
124.931778 97.398933 0.498389
126.872467 97.398933 0.506205
128.813156 97.398933 0.466547
130.753845 97.398933 0.611871
132.694534 97.398933 0.532777
134.635223 97.398933 0.460039
136.575912 97.398933 0.444506
138.516602 97.398933 0.523964
140.457291 97.398933 0.000000
-55.552399 95.458237 7.044838
-53.611710 95.458237 6.754001
-51.671021 95.458237 2.484926
-49.730328 95.458237 1.109051
-47.789639 95.458237 0.992235
-45.848949 95.458237 0.933238
-43.908257 95.458237 1.083817
-41.967567 95.458237 0.859123
-40.026878 95.458237 1.004688
-38.086189 95.458237 0.000000
-36.145500 95.458237 0.000000
-34.204807 95.458237 0.000000
-32.264118 95.458237 0.000000
-30.323429 95.458237 0.000000
-28.382738 95.458237 0.000000
-26.442047 95.458237 0.000000
-24.501358 95.458237 0.000000
-22.560669 95.458237 0.000000
-20.619980 95.458237 0.000000
-18.679287 95.458237 0.000000
-16.738598 95.458237 0.443739
-14.797909 95.458237 0.394658
-12.857216 95.458237 0.479612
-10.916527 95.458237 0.484873
-8.975838 95.458237 0.549201
-7.035149 95.458237 0.502775
-5.094460 95.458237 0.625039
-3.153767 95.458237 0.654518
-1.213078 95.458237 0.943554
0.727612 95.458237 1.022892
2.668304 95.458237 1.098519
4.608994 95.458237 1.442959
6.549683 95.458237 1.275981
8.490372 95.458237 1.019675
10.431061 95.458237 1.195531
12.371750 95.458237 1.424008
14.312439 95.458237 1.396630
16.253136 95.458237 1.622749
18.193825 95.458237 1.414499
20.134514 95.458237 1.233180
22.075203 95.458237 1.026033
24.015892 95.458237 0.976459
25.956581 95.458237 0.930980
27.897270 95.458237 0.847445
29.837967 95.458237 0.942697
31.778656 95.458237 1.141041
33.719345 95.458237 1.216846
35.660034 95.458237 1.298755
37.600723 95.458237 1.550693
39.541412 95.458237 1.014668
41.482101 95.458237 1.213642
43.422791 95.458237 0.811958
45.363480 95.458237 1.089145
47.304176 95.458237 0.954326
49.244865 95.458237 0.650348
51.185555 95.458237 0.846346
53.126244 95.458237 1.394636
55.066933 95.458237 1.456738
57.007622 95.458237 1.137909
58.948311 95.458237 0.000000
60.889008 95.458237 0.000000
62.829697 95.458237 0.000000
64.770386 95.458237 0.000000
66.711075 95.458237 0.000000
68.651764 95.458237 0.000000
70.592453 95.458237 0.881191
72.533142 95.458237 0.682111
74.473831 95.458237 0.571531
76.414520 95.458237 0.790982
78.355209 95.458237 0.653843
80.295898 95.458237 0.622812
82.236588 95.458237 0.779311
84.177277 95.458237 0.753599
86.117981 95.458237 0.607535
88.058670 95.458237 0.622609
89.999359 95.458237 0.522796
91.940048 95.458237 0.640218
93.880737 95.458237 0.706702
95.821426 95.458237 0.607634
97.762115 95.458237 0.519323
99.702805 95.458237 0.427904
101.643494 95.458237 0.467027
103.584183 95.458237 0.462730
105.524872 95.458237 0.598999
107.465561 95.458237 0.474852
109.406250 95.458237 0.455454
111.346939 95.458237 0.560460
113.287628 95.458237 0.534537
115.228333 95.458237 0.673412
117.169022 95.458237 0.396010
119.109711 95.458237 0.440082
121.050400 95.458237 0.378280
122.991089 95.458237 0.727537
124.931778 95.458237 0.533088
126.872467 95.458237 0.494703
128.813156 95.458237 0.425896
130.753845 95.458237 0.556775
132.694534 95.458237 0.450705
134.635223 95.458237 0.446927
136.575912 95.458237 0.403543
138.516602 95.458237 0.380175
140.457291 95.458237 0.000000
-55.552399 93.517548 8.766321
-53.611710 93.517548 4.949182
-51.671021 93.517548 1.190110
-49.730328 93.517548 0.996479
-47.789639 93.517548 0.934747
-45.848949 93.517548 1.113726
-43.908257 93.517548 1.167380
-41.967567 93.517548 0.730426
-40.026878 93.517548 0.893675
-38.086189 93.517548 0.000000
-36.145500 93.517548 0.000000
-34.204807 93.517548 0.000000
-32.264118 93.517548 0.000000
-30.323429 93.517548 0.000000
-28.382738 93.517548 0.000000
-26.442047 93.517548 0.000000
-24.501358 93.517548 0.000000
-22.560669 93.517548 0.000000
-20.619980 93.517548 0.000000
-18.679287 93.517548 0.000000
-16.738598 93.517548 0.460471
-14.797909 93.517548 0.472992
-12.857216 93.517548 0.455423
-10.916527 93.517548 0.549143
-8.975838 93.517548 0.483921
-7.035149 93.517548 0.562470
-5.094460 93.517548 0.813988
-3.153767 93.517548 1.142580
-1.213078 93.517548 1.159060
0.727612 93.517548 1.104368
2.668304 93.517548 1.231246
4.608994 93.517548 1.152428
6.549683 93.517548 1.291629
8.490372 93.517548 1.136582
10.431061 93.517548 1.296133
12.371750 93.517548 1.017333
14.312439 93.517548 1.146057
16.253136 93.517548 1.560031
18.193825 93.517548 0.748546
20.134514 93.517548 1.391577
22.075203 93.517548 1.058970
24.015892 93.517548 1.016920
25.956581 93.517548 0.881102
27.897270 93.517548 0.679491
29.837967 93.517548 0.926597
31.778656 93.517548 1.317788
33.719345 93.517548 1.319304
35.660034 93.517548 1.073472
37.600723 93.517548 0.977677
39.541412 93.517548 0.808576
41.482101 93.517548 0.936433
43.422791 93.517548 1.114647
45.363480 93.517548 0.983279
47.304176 93.517548 0.954445
49.244865 93.517548 0.877876
51.185555 93.517548 1.006726
53.126244 93.517548 0.831191
55.066933 93.517548 1.177039
57.007622 93.517548 1.702990
58.948311 93.517548 0.000000
60.889008 93.517548 0.000000
62.829697 93.517548 0.000000
64.770386 93.517548 0.000000
66.711075 93.517548 0.000000
68.651764 93.517548 0.000000
70.592453 93.517548 0.711036
72.533142 93.517548 0.621467
74.473831 93.517548 0.833788
76.414520 93.517548 0.718460
78.355209 93.517548 0.853885
80.295898 93.517548 1.025158
82.236588 93.517548 0.701322
84.177277 93.517548 0.904385
86.117981 93.517548 0.727634
88.058670 93.517548 0.617252
89.999359 93.517548 0.620955
91.940048 93.517548 0.608389
93.880737 93.517548 0.521966
95.821426 93.517548 0.527630
97.762115 93.517548 0.451310
99.702805 93.517548 0.433129
101.643494 93.517548 0.526424
103.584183 93.517548 0.421948
105.524872 93.517548 0.568892
107.465561 93.517548 0.561707
109.406250 93.517548 0.442665
111.346939 93.517548 0.484911
113.287628 93.517548 0.546979
115.228333 93.517548 0.413027
117.169022 93.517548 0.402915
119.109711 93.517548 0.527004
121.050400 93.517548 0.470424
122.991089 93.517548 0.478076
124.931778 93.517548 0.496454
126.872467 93.517548 0.420672
128.813156 93.517548 0.369298
130.753845 93.517548 0.660076
132.694534 93.517548 0.533209
134.635223 93.517548 0.492101
136.575912 93.517548 0.420001
138.516602 93.517548 0.343425
140.457291 93.517548 0.000000
-55.552399 91.576859 6.053130
-53.611710 91.576859 4.507829
-51.671021 91.576859 1.331454
-49.730328 91.576859 1.147229
-47.789639 91.576859 0.924524
-45.848949 91.576859 0.849347
-43.908257 91.576859 1.048522
-41.967567 91.576859 1.039107
-40.026878 91.576859 0.735025
-38.086189 91.576859 0.000000
-36.145500 91.576859 0.000000
-34.204807 91.576859 0.000000
-32.264118 91.576859 0.000000
-30.323429 91.576859 0.000000
-28.382738 91.576859 0.000000
-26.442047 91.576859 0.000000
-24.501358 91.576859 0.000000
-22.560669 91.576859 0.000000
-20.619980 91.576859 0.000000
-18.679287 91.576859 0.000000
-16.738598 91.576859 0.426161
-14.797909 91.576859 0.424432
-12.857216 91.576859 0.572799
-10.916527 91.576859 0.734097
-8.975838 91.576859 0.777751
-7.035149 91.576859 0.873253
-5.094460 91.576859 0.743049
-3.153767 91.576859 1.155109
-1.213078 91.576859 1.145697
0.727612 91.576859 1.155509
2.668304 91.576859 1.101822
4.608994 91.576859 0.913099
6.549683 91.576859 1.222518
8.490372 91.576859 1.058268
10.431061 91.576859 1.124204
12.371750 91.576859 1.051843
14.312439 91.576859 0.625035
16.253136 91.576859 1.190736
18.193825 91.576859 1.010178
20.134514 91.576859 1.022953
22.075203 91.576859 0.798242
24.015892 91.576859 0.828712
25.956581 91.576859 0.802217
27.897270 91.576859 0.770543
29.837967 91.576859 0.837915
31.778656 91.576859 1.117038
33.719345 91.576859 0.849526
35.660034 91.576859 0.713917
37.600723 91.576859 0.630476
39.541412 91.576859 0.601668
41.482101 91.576859 0.839295
43.422791 91.576859 0.751659
45.363480 91.576859 0.928784
47.304176 91.576859 0.725430
49.244865 91.576859 0.838611
51.185555 91.576859 0.722126
53.126244 91.576859 0.693818
55.066933 91.576859 1.339926
57.007622 91.576859 1.203693
58.948311 91.576859 0.000000
60.889008 91.576859 0.000000
62.829697 91.576859 0.000000
64.770386 91.576859 0.000000
66.711075 91.576859 0.000000
68.651764 91.576859 0.000000
70.592453 91.576859 0.641700
72.533142 91.576859 0.687364
74.473831 91.576859 0.743748
76.414520 91.576859 0.772532
78.355209 91.576859 0.609222
80.295898 91.576859 0.560883
82.236588 91.576859 0.694315
84.177277 91.576859 0.674060
86.117981 91.576859 0.604477
88.058670 91.576859 0.668503
89.999359 91.576859 0.746564
91.940048 91.576859 0.686786
93.880737 91.576859 0.492057
95.821426 91.576859 0.651221
97.762115 91.576859 0.564789
99.702805 91.576859 0.488599
101.643494 91.576859 0.496258
103.584183 91.576859 0.594564
105.524872 91.576859 0.576672
107.465561 91.576859 0.566705
109.406250 91.576859 0.478867
111.346939 91.576859 0.454016
113.287628 91.576859 0.696524
115.228333 91.576859 0.428378
117.169022 91.576859 0.438771
119.109711 91.576859 0.362645
121.050400 91.576859 0.539228
122.991089 91.576859 0.451897
124.931778 91.576859 0.466287
126.872467 91.576859 0.463905
128.813156 91.576859 0.501725
130.753845 91.576859 0.479207
132.694534 91.576859 0.401490
134.635223 91.576859 0.603279
136.575912 91.576859 0.427761
138.516602 91.576859 0.377246
140.457291 91.576859 0.000000
-55.552399 89.636169 5.134204
-53.611710 89.636169 1.429206
-51.671021 89.636169 0.921585
-49.730328 89.636169 0.797424
-47.789639 89.636169 0.972389
-45.848949 89.636169 0.804961
-43.908257 89.636169 0.851422
-41.967567 89.636169 0.742009
-40.026878 89.636169 0.635369
-38.086189 89.636169 0.000000
-36.145500 89.636169 0.000000
-34.204807 89.636169 0.000000
-32.264118 89.636169 0.000000
-30.323429 89.636169 0.000000
-28.382738 89.636169 0.000000
-26.442047 89.636169 0.000000
-24.501358 89.636169 0.000000
-22.560669 89.636169 0.000000
-20.619980 89.636169 0.000000
-18.679287 89.636169 0.000000
-16.738598 89.636169 0.484362
-14.797909 89.636169 0.393725
-12.857216 89.636169 0.418031
-10.916527 89.636169 0.705403
-8.975838 89.636169 0.588026
-7.035149 89.636169 0.681258
-5.094460 89.636169 0.620897
-3.153767 89.636169 0.837761
-1.213078 89.636169 0.925904
0.727612 89.636169 0.827861
2.668304 89.636169 0.652127
4.608994 89.636169 0.838144
6.549683 89.636169 0.707175
8.490372 89.636169 0.618170
10.431061 89.636169 0.802553
12.371750 89.636169 0.649307
14.312439 89.636169 0.928427
16.253136 89.636169 0.774864
18.193825 89.636169 0.677187
20.134514 89.636169 0.641315
22.075203 89.636169 0.629994
24.015892 89.636169 0.747292
25.956581 89.636169 0.735011
27.897270 89.636169 0.703191
29.837967 89.636169 0.552486
31.778656 89.636169 0.589563
33.719345 89.636169 0.715682
35.660034 89.636169 0.644096
37.600723 89.636169 0.751731
39.541412 89.636169 0.604701
41.482101 89.636169 0.555121
43.422791 89.636169 0.550731
45.363480 89.636169 0.702497
47.304176 89.636169 0.666067
49.244865 89.636169 0.750339
51.185555 89.636169 0.679900
53.126244 89.636169 0.756410
55.066933 89.636169 1.374882
57.007622 89.636169 0.795572
58.948311 89.636169 0.000000
60.889008 89.636169 0.000000
62.829697 89.636169 0.000000
64.770386 89.636169 0.000000
66.711075 89.636169 0.000000
68.651764 89.636169 0.000000
70.592453 89.636169 0.749667
72.533142 89.636169 0.423733
74.473831 89.636169 0.725616
76.414520 89.636169 1.180687
78.355209 89.636169 0.736842
80.295898 89.636169 0.735428
82.236588 89.636169 0.630976
84.177277 89.636169 0.624126
86.117981 89.636169 0.590182
88.058670 89.636169 0.594029
89.999359 89.636169 0.487043
91.940048 89.636169 0.601526
93.880737 89.636169 0.455963
95.821426 89.636169 0.542633
97.762115 89.636169 0.535261
99.702805 89.636169 0.654207
101.643494 89.636169 0.493111
103.584183 89.636169 0.506350
105.524872 89.636169 0.536284
107.465561 89.636169 0.475476
109.406250 89.636169 0.395029
111.346939 89.636169 0.420987
113.287628 89.636169 0.512572
115.228333 89.636169 0.502086
117.169022 89.636169 0.570228
119.109711 89.636169 0.449094
121.050400 89.636169 0.513390
122.991089 89.636169 0.446890
124.931778 89.636169 0.457829
126.872467 89.636169 0.497731
128.813156 89.636169 0.479643
130.753845 89.636169 0.404741
132.694534 89.636169 0.454471
134.635223 89.636169 0.598918
136.575912 89.636169 0.442297
138.516602 89.636169 0.355784
140.457291 89.636169 0.000000
-55.552399 87.695480 4.466900
-53.611710 87.695480 2.720336
-51.671021 87.695480 1.003796
-49.730328 87.695480 0.781045
-47.789639 87.695480 0.760398
-45.848949 87.695480 0.822663
-43.908257 87.695480 0.996294
-41.967567 87.695480 0.775936
-40.026878 87.695480 0.793220
-38.086189 87.695480 0.884309
-36.145500 87.695480 0.000000
-34.204807 87.695480 0.000000
-32.264118 87.695480 0.000000
-30.323429 87.695480 0.000000
-28.382738 87.695480 0.000000
-26.442047 87.695480 0.000000
-24.501358 87.695480 0.000000
-22.560669 87.695480 0.000000
-20.619980 87.695480 0.000000
-18.679287 87.695480 0.000000
-16.738598 87.695480 0.507438
-14.797909 87.695480 0.448714
-12.857216 87.695480 0.480002
-10.916527 87.695480 0.605907
-8.975838 87.695480 0.468497
-7.035149 87.695480 0.596159
-5.094460 87.695480 0.632408
-3.153767 87.695480 0.915959
-1.213078 87.695480 0.832814
0.727612 87.695480 0.630329
2.668304 87.695480 0.498742
4.608994 87.695480 0.545832
6.549683 87.695480 0.642270
8.490372 87.695480 0.482682
10.431061 87.695480 0.456652
12.371750 87.695480 0.615741
14.312439 87.695480 0.576704
16.253136 87.695480 0.487830
18.193825 87.695480 0.803727
20.134514 87.695480 0.502735
22.075203 87.695480 0.617044
24.015892 87.695480 0.447614
25.956581 87.695480 0.366863
27.897270 87.695480 0.588175
29.837967 87.695480 0.482400
31.778656 87.695480 0.502946
33.719345 87.695480 0.574328
35.660034 87.695480 0.713528
37.600723 87.695480 0.665323
39.541412 87.695480 0.577639
41.482101 87.695480 0.483859
43.422791 87.695480 0.464442
45.363480 87.695480 0.547317
47.304176 87.695480 0.442723
49.244865 87.695480 0.532511
51.185555 87.695480 0.711657
53.126244 87.695480 0.782461
55.066933 87.695480 0.960686
57.007622 87.695480 0.662683
58.948311 87.695480 0.000000
60.889008 87.695480 0.000000
62.829697 87.695480 0.000000
64.770386 87.695480 0.000000
66.711075 87.695480 0.000000
68.651764 87.695480 0.000000
70.592453 87.695480 0.617102
72.533142 87.695480 0.487845
74.473831 87.695480 0.617336
76.414520 87.695480 1.006933
78.355209 87.695480 0.854213
80.295898 87.695480 0.769147
82.236588 87.695480 0.622920
84.177277 87.695480 0.518344
86.117981 87.695480 0.589356
88.058670 87.695480 0.698491
89.999359 87.695480 0.559731
91.940048 87.695480 0.455700
93.880737 87.695480 0.707207
95.821426 87.695480 0.845353
97.762115 87.695480 0.609493
99.702805 87.695480 0.514100
101.643494 87.695480 0.559188
103.584183 87.695480 0.589968
105.524872 87.695480 0.538585
107.465561 87.695480 0.509743
109.406250 87.695480 0.367326
111.346939 87.695480 0.504529
113.287628 87.695480 0.485098
115.228333 87.695480 0.634931
117.169022 87.695480 0.454937
119.109711 87.695480 0.483392
121.050400 87.695480 0.570319
122.991089 87.695480 0.457807
124.931778 87.695480 0.428128
126.872467 87.695480 0.415529
128.813156 87.695480 0.426838
130.753845 87.695480 0.416992
132.694534 87.695480 0.383636
134.635223 87.695480 0.524115
136.575912 87.695480 0.339950
138.516602 87.695480 0.371602
140.457291 87.695480 0.000000
-55.552399 85.754791 4.315982
-53.611710 85.754791 2.929552
-51.671021 85.754791 0.925636
-49.730328 85.754791 0.701463
-47.789639 85.754791 0.682713
-45.848949 85.754791 0.848859
-43.908257 85.754791 0.813366
-41.967567 85.754791 0.691988
-40.026878 85.754791 0.595068
-38.086189 85.754791 0.664554
-36.145500 85.754791 0.000000
-34.204807 85.754791 0.000000
-32.264118 85.754791 0.000000
-30.323429 85.754791 0.000000
-28.382738 85.754791 0.000000
-26.442047 85.754791 0.000000
-24.501358 85.754791 0.000000
-22.560669 85.754791 0.000000
-20.619980 85.754791 0.000000
-18.679287 85.754791 0.000000
-16.738598 85.754791 0.432714
-14.797909 85.754791 0.339920
-12.857216 85.754791 0.380363
-10.916527 85.754791 0.380053
-8.975838 85.754791 0.509281
-7.035149 85.754791 0.677655
-5.094460 85.754791 0.710558
-3.153767 85.754791 0.831615
-1.213078 85.754791 0.651155
0.727612 85.754791 0.395959
2.668304 85.754791 0.458140
4.608994 85.754791 0.460229
6.549683 85.754791 0.412039
8.490372 85.754791 0.406450
10.431061 85.754791 0.364782
12.371750 85.754791 0.515843
14.312439 85.754791 0.526259
16.253136 85.754791 0.509971
18.193825 85.754791 0.905305
20.134514 85.754791 0.658920
22.075203 85.754791 0.550541
24.015892 85.754791 0.366252
25.956581 85.754791 0.347116
27.897270 85.754791 0.409152
29.837967 85.754791 0.437891
31.778656 85.754791 0.473774
33.719345 85.754791 0.427016
35.660034 85.754791 0.589265
37.600723 85.754791 0.457671
39.541412 85.754791 0.383380
41.482101 85.754791 0.430206
43.422791 85.754791 0.637374
45.363480 85.754791 0.522891
47.304176 85.754791 0.431481
49.244865 85.754791 0.553343
51.185555 85.754791 0.475105
53.126244 85.754791 0.711605
55.066933 85.754791 0.681147
57.007622 85.754791 0.667632
58.948311 85.754791 0.000000
60.889008 85.754791 0.000000
62.829697 85.754791 0.000000
64.770386 85.754791 0.000000
66.711075 85.754791 0.000000
68.651764 85.754791 0.000000
70.592453 85.754791 0.520785
72.533142 85.754791 0.440876
74.473831 85.754791 0.605108
76.414520 85.754791 0.838951
78.355209 85.754791 0.754788
80.295898 85.754791 0.687106
82.236588 85.754791 0.593728
84.177277 85.754791 0.537786
86.117981 85.754791 0.614597
88.058670 85.754791 0.527383
89.999359 85.754791 0.539195
91.940048 85.754791 0.509597
93.880737 85.754791 0.607878
95.821426 85.754791 0.668550
97.762115 85.754791 0.469262
99.702805 85.754791 0.448312
101.643494 85.754791 0.543184
103.584183 85.754791 0.572773
105.524872 85.754791 0.555611
107.465561 85.754791 0.386859
109.406250 85.754791 0.396971
111.346939 85.754791 0.386355
113.287628 85.754791 0.471430
115.228333 85.754791 0.457873
117.169022 85.754791 0.383133
119.109711 85.754791 0.409749
121.050400 85.754791 0.559066