TITLE = "B00004"
VARIABLES = "position", "position(2)", "RMS Vx"
ZONE T="Frame 1" I=102, J=78, F=POINT
-55.552399 103.221001 0.000000
-53.611710 103.221001 1.211860
-51.671021 103.221001 1.074124
-49.730328 103.221001 0.819268
-47.789639 103.221001 0.674240
-45.848949 103.221001 0.731940
-43.908257 103.221001 0.801228
-41.967567 103.221001 0.872544
-40.026878 103.221001 0.774225
-38.086189 103.221001 0.000000
-36.145500 103.221001 0.000000
-34.204807 103.221001 0.000000
-32.264118 103.221001 0.000000
-30.323429 103.221001 0.000000
-28.382738 103.221001 0.000000
-26.442047 103.221001 0.000000
-24.501358 103.221001 0.000000
-22.560669 103.221001 0.000000
-20.619980 103.221001 0.000000
-18.679287 103.221001 0.000000
-16.738598 103.221001 0.000000
-14.797909 103.221001 0.000000
-12.857216 103.221001 0.259832
-10.916527 103.221001 0.320928
-8.975838 103.221001 0.452261
-7.035149 103.221001 0.724299
-5.094460 103.221001 0.801115
-3.153767 103.221001 0.820992
-1.213078 103.221001 0.782945
0.727612 103.221001 0.826341
2.668304 103.221001 0.846232
4.608994 103.221001 0.909312
6.549683 103.221001 0.884872
8.490372 103.221001 0.958582
10.431061 103.221001 0.836858
12.371750 103.221001 0.811070
14.312439 103.221001 0.953543
16.253136 103.221001 1.205664
18.193825 103.221001 1.148928
20.134514 103.221001 0.937687
22.075203 103.221001 0.946175
24.015892 103.221001 0.884723
25.956581 103.221001 0.741750
27.897270 103.221001 0.875076
29.837967 103.221001 0.850614
31.778656 103.221001 1.056431
33.719345 103.221001 1.096340
35.660034 103.221001 1.056975
37.600723 103.221001 1.130723
39.541412 103.221001 1.365530
41.482101 103.221001 1.484892
43.422791 103.221001 1.279472
45.363480 103.221001 0.933357
47.304176 103.221001 0.929141
49.244865 103.221001 0.835522
51.185555 103.221001 0.769534
53.126244 103.221001 0.668085
55.066933 103.221001 0.696624
57.007622 103.221001 0.000000
58.948311 103.221001 0.000000
60.889008 103.221001 0.000000
62.829697 103.221001 0.000000
64.770386 103.221001 0.000000
66.711075 103.221001 0.940023
68.651764 103.221001 0.700020
70.592453 103.221001 0.540425
72.533142 103.221001 0.516191
74.473831 103.221001 0.587632
76.414520 103.221001 0.606743
78.355209 103.221001 0.555647
80.295898 103.221001 0.460518
82.236588 103.221001 0.508680
84.177277 103.221001 0.550227
86.117981 103.221001 0.439205
88.058670 103.221001 0.632769
89.999359 103.221001 0.571757
91.940048 103.221001 0.620792
93.880737 103.221001 0.568544
95.821426 103.221001 0.470890
97.762115 103.221001 0.496817
99.702805 103.221001 0.508552
101.643494 103.221001 0.391018
103.584183 103.221001 0.440536
105.524872 103.221001 0.437721
107.465561 103.221001 0.442562
109.406250 103.221001 0.390279
111.346939 103.221001 0.393990
113.287628 103.221001 0.457322
115.228333 103.221001 0.397517
117.169022 103.221001 0.429837
119.109711 103.221001 0.469826
121.050400 103.221001 0.467091
122.991089 103.221001 0.574148
124.931778 103.221001 0.519078
126.872467 103.221001 0.521534
128.813156 103.221001 0.477105
130.753845 103.221001 0.518506
132.694534 103.221001 0.364785
134.635223 103.221001 0.410733
136.575912 103.221001 0.446984
138.516602 103.221001 0.456279
140.457291 103.221001 0.000000
-55.552399 101.280312 1.062270
-53.611710 101.280312 0.852303
-51.671021 101.280312 0.838354
-49.730328 101.280312 0.640655
-47.789639 101.280312 0.491756
-45.848949 101.280312 0.511418
-43.908257 101.280312 0.560120
-41.967567 101.280312 0.583499
-40.026878 101.280312 0.617064
-38.086189 101.280312 0.000000
-36.145500 101.280312 0.000000
-34.204807 101.280312 0.000000
-32.264118 101.280312 0.000000
-30.323429 101.280312 0.000000
-28.382738 101.280312 0.000000
-26.442047 101.280312 0.000000
-24.501358 101.280312 0.000000
-22.560669 101.280312 0.000000
-20.619980 101.280312 0.000000
-18.679287 101.280312 0.000000
-16.738598 101.280312 0.000000
-14.797909 101.280312 0.272752
-12.857216 101.280312 0.201125
-10.916527 101.280312 0.242016
-8.975838 101.280312 0.332225
-7.035149 101.280312 0.526907
-5.094460 101.280312 0.625868
-3.153767 101.280312 0.562464
-1.213078 101.280312 0.562006
0.727612 101.280312 0.575986
2.668304 101.280312 0.702585
4.608994 101.280312 0.733777
6.549683 101.280312 0.762886
8.490372 101.280312 0.633605
10.431061 101.280312 0.608741
12.371750 101.280312 0.620197
14.312439 101.280312 0.720835
16.253136 101.280312 0.842637
18.193825 101.280312 0.865340
20.134514 101.280312 0.827430
22.075203 101.280312 0.705524
24.015892 101.280312 0.748299
25.956581 101.280312 0.589301
27.897270 101.280312 0.592145
29.837967 101.280312 0.664679
31.778656 101.280312 0.782369
33.719345 101.280312 0.977611
35.660034 101.280312 0.866152
37.600723 101.280312 0.863934
39.541412 101.280312 0.943209
41.482101 101.280312 1.072268
43.422791 101.280312 0.932023
45.363480 101.280312 0.772748
47.304176 101.280312 0.776580
49.244865 101.280312 0.697618
51.185555 101.280312 0.639813
53.126244 101.280312 0.627495
55.066933 101.280312 0.560067
57.007622 101.280312 1.017949
58.948311 101.280312 0.000000
60.889008 101.280312 0.000000
62.829697 101.280312 0.000000
64.770386 101.280312 0.000000
66.711075 101.280312 0.573010
68.651764 101.280312 0.467696
70.592453 101.280312 0.408254
72.533142 101.280312 0.383761
74.473831 101.280312 0.433438
76.414520 101.280312 0.441175
78.355209 101.280312 0.432469
80.295898 101.280312 0.362085
82.236588 101.280312 0.433977
84.177277 101.280312 0.360431
86.117981 101.280312 0.314858
88.058670 101.280312 0.339255
89.999359 101.280312 0.390691
91.940048 101.280312 0.387033
93.880737 101.280312 0.334102
95.821426 101.280312 0.309605
97.762115 101.280312 0.317030
99.702805 101.280312 0.322538
101.643494 101.280312 0.311529
103.584183 101.280312 0.326053
105.524872 101.280312 0.314881
107.465561 101.280312 0.314357
109.406250 101.280312 0.303473
111.346939 101.280312 0.314531
113.287628 101.280312 0.313872
115.228333 101.280312 0.304407
117.169022 101.280312 0.314560
119.109711 101.280312 0.323204
121.050400 101.280312 0.307638
122.991089 101.280312 0.314796
124.931778 101.280312 0.401148
126.872467 101.280312 0.375708
128.813156 101.280312 0.348225
130.753845 101.280312 0.343984
132.694534 101.280312 0.308580
134.635223 101.280312 0.329084
136.575912 101.280312 0.322371
138.516602 101.280312 0.385538
140.457291 101.280312 0.000000
-55.552399 99.339622 1.098164
-53.611710 99.339622 0.864075
-51.671021 99.339622 0.671592
-49.730328 99.339622 0.640013
-47.789639 99.339622 0.538338
-45.848949 99.339622 0.543477
-43.908257 99.339622 0.560670
-41.967567 99.339622 0.485148
-40.026878 99.339622 0.476183
-38.086189 99.339622 0.000000
-36.145500 99.339622 0.000000
-34.204807 99.339622 0.000000
-32.264118 99.339622 0.000000
-30.323429 99.339622 0.000000
-28.382738 99.339622 0.000000
-26.442047 99.339622 0.000000
-24.501358 99.339622 0.000000
-22.560669 99.339622 0.000000
-20.619980 99.339622 0.000000
-18.679287 99.339622 0.000000
-16.738598 99.339622 0.000000
-14.797909 99.339622 0.229866
-12.857216 99.339622 0.220721
-10.916527 99.339622 0.250991
-8.975838 99.339622 0.312699
-7.035149 99.339622 0.436409
-5.094460 99.339622 0.469918
-3.153767 99.339622 0.481079
-1.213078 99.339622 0.632546
0.727612 99.339622 0.585545
2.668304 99.339622 0.673885
4.608994 99.339622 0.633243
6.549683 99.339622 0.586296
8.490372 99.339622 0.653290
10.431061 99.339622 0.714773
12.371750 99.339622 0.739986
14.312439 99.339622 0.884087
16.253136 99.339622 0.899847
18.193825 99.339622 0.878835
20.134514 99.339622 0.916509
22.075203 99.339622 0.753641
24.015892 99.339622 0.724395
25.956581 99.339622 0.693683
27.897270 99.339622 0.627887
29.837967 99.339622 0.737018
31.778656 99.339622 0.891029
33.719345 99.339622 1.017176
35.660034 99.339622 0.960689
37.600723 99.339622 0.869086
39.541412 99.339622 0.909437
41.482101 99.339622 0.777375
43.422791 99.339622 0.789259
45.363480 99.339622 0.845432
47.304176 99.339622 0.871190
49.244865 99.339622 0.862598
51.185555 99.339622 0.801488
53.126244 99.339622 0.928895
55.066933 99.339622 0.752116
57.007622 99.339622 1.051071
58.948311 99.339622 0.000000
60.889008 99.339622 0.000000
62.829697 99.339622 0.000000
64.770386 99.339622 0.000000
66.711075 99.339622 0.536795
68.651764 99.339622 0.431780
70.592453 99.339622 0.515877
72.533142 99.339622 0.437297
74.473831 99.339622 0.420868
76.414520 99.339622 0.405163
78.355209 99.339622 0.445777
80.295898 99.339622 0.403307
82.236588 99.339622 0.421392
84.177277 99.339622 0.371451
86.117981 99.339622 0.359427
88.058670 99.339622 0.313149
89.999359 99.339622 0.347509
91.940048 99.339622 0.338703
93.880737 99.339622 0.385189
95.821426 99.339622 0.305832
97.762115 99.339622 0.336351
99.702805 99.339622 0.312751
101.643494 99.339622 0.323364
103.584183 99.339622 0.343119
105.524872 99.339622 0.323988
107.465561 99.339622 0.351604
109.406250 99.339622 0.322568
111.346939 99.339622 0.321947
113.287628 99.339622 0.262302
115.228333 99.339622 0.358555
117.169022 99.339622 0.318698
119.109711 99.339622 0.283323
121.050400 99.339622 0.286377
122.991089 99.339622 0.291809
124.931778 99.339622 0.326788
126.872467 99.339622 0.308320
128.813156 99.339622 0.323491
130.753845 99.339622 0.339034
132.694534 99.339622 0.348351
134.635223 99.339622 0.338364
136.575912 99.339622 0.297850
138.516602 99.339622 0.371599
140.457291 99.339622 0.000000
-55.552399 97.398933 1.014724
-53.611710 97.398933 0.814193
-51.671021 97.398933 0.826277
-49.730328 97.398933 0.635596
-47.789639 97.398933 0.604929
-45.848949 97.398933 0.518977
-43.908257 97.398933 0.571492
-41.967567 97.398933 0.569762
-40.026878 97.398933 0.480305
-38.086189 97.398933 0.000000
-36.145500 97.398933 0.000000
-34.204807 97.398933 0.000000
-32.264118 97.398933 0.000000
-30.323429 97.398933 0.000000
-28.382738 97.398933 0.000000
-26.442047 97.398933 0.000000
-24.501358 97.398933 0.000000
-22.560669 97.398933 0.000000
-20.619980 97.398933 0.000000
-18.679287 97.398933 0.000000
-16.738598 97.398933 0.000000
-14.797909 97.398933 0.208584
-12.857216 97.398933 0.216142
-10.916527 97.398933 0.235685
-8.975838 97.398933 0.265862
-7.035149 97.398933 0.296596
-5.094460 97.398933 0.392823
-3.153767 97.398933 0.428940
-1.213078 97.398933 0.558928
0.727612 97.398933 0.551406
2.668304 97.398933 0.667199
4.608994 97.398933 0.598254
6.549683 97.398933 0.652877
8.490372 97.398933 0.812225
10.431061 97.398933 0.842878
12.371750 97.398933 0.872718
14.312439 97.398933 1.009419
16.253136 97.398933 1.019443
18.193825 97.398933 0.844004
20.134514 97.398933 0.785788
22.075203 97.398933 0.741669
24.015892 97.398933 0.669217
25.956581 97.398933 0.651220
27.897270 97.398933 0.572273
29.837967 97.398933 0.577504
31.778656 97.398933 0.817687
33.719345 97.398933 0.978211
35.660034 97.398933 0.953017
37.600723 97.398933 0.943241
39.541412 97.398933 0.869693
41.482101 97.398933 0.702911
43.422791 97.398933 0.683477
45.363480 97.398933 0.905700
47.304176 97.398933 0.836748
49.244865 97.398933 0.764651
51.185555 97.398933 0.799588
53.126244 97.398933 0.954778
55.066933 97.398933 0.853480
57.007622 97.398933 1.166551
58.948311 97.398933 0.000000
60.889008 97.398933 0.000000
62.829697 97.398933 0.000000
64.770386 97.398933 0.000000
66.711075 97.398933 0.490528
68.651764 97.398933 0.511908
70.592453 97.398933 0.576757
72.533142 97.398933 0.487591
74.473831 97.398933 0.385614
76.414520 97.398933 0.409519
78.355209 97.398933 0.416177
80.295898 97.398933 0.431153
82.236588 97.398933 0.422725
84.177277 97.398933 0.422858
86.117981 97.398933 0.370177
88.058670 97.398933 0.271240
89.999359 97.398933 0.337911
91.940048 97.398933 0.391704
93.880737 97.398933 0.393655
95.821426 97.398933 0.362522
97.762115 97.398933 0.339514
99.702805 97.398933 0.325279
101.643494 97.398933 0.271388
103.584183 97.398933 0.274760
105.524872 97.398933 0.290915
107.465561 97.398933 0.278053
109.406250 97.398933 0.263534
111.346939 97.398933 0.268306
113.287628 97.398933 0.271886
115.228333 97.398933 0.278956
117.169022 97.398933 0.288733
119.109711 97.398933 0.289239
121.050400 97.398933 0.310041
122.991089 97.398933 0.338487
124.931778 97.398933 0.329075
126.872467 97.398933 0.328708
128.813156 97.398933 0.322986
130.753845 97.398933 0.345268
132.694534 97.398933 0.324156
134.635223 97.398933 0.321890
136.575912 97.398933 0.300021
138.516602 97.398933 0.360895
140.457291 97.398933 0.000000
-55.552399 95.458237 1.101129
-53.611710 95.458237 0.724962
-51.671021 95.458237 0.677917
-49.730328 95.458237 0.600065
-47.789639 95.458237 0.626846
-45.848949 95.458237 0.474583
-43.908257 95.458237 0.529139
-41.967567 95.458237 0.491818
-40.026878 95.458237 0.434950
-38.086189 95.458237 0.000000
-36.145500 95.458237 0.000000
-34.204807 95.458237 0.000000
-32.264118 95.458237 0.000000
-30.323429 95.458237 0.000000
-28.382738 95.458237 0.000000
-26.442047 95.458237 0.000000
-24.501358 95.458237 0.000000
-22.560669 95.458237 0.000000
-20.619980 95.458237 0.000000
-18.679287 95.458237 0.000000
-16.738598 95.458237 0.000000
-14.797909 95.458237 0.217138
-12.857216 95.458237 0.199739
-10.916527 95.458237 0.235879
-8.975838 95.458237 0.236202
-7.035149 95.458237 0.281560
-5.094460 95.458237 0.480782
-3.153767 95.458237 0.549706
-1.213078 95.458237 0.555327
0.727612 95.458237 0.554399
2.668304 95.458237 0.727304
4.608994 95.458237 0.852586
6.549683 95.458237 0.830336
8.490372 95.458237 0.954534
10.431061 95.458237 0.805381
12.371750 95.458237 0.915270
14.312439 95.458237 0.957538
16.253136 95.458237 0.929893
18.193825 95.458237 0.841373
20.134514 95.458237 0.775006
22.075203 95.458237 0.636627
24.015892 95.458237 0.673277
25.956581 95.458237 0.623436
27.897270 95.458237 0.592360
29.837967 95.458237 0.573268
31.778656 95.458237 0.739722
33.719345 95.458237 0.773637
35.660034 95.458237 0.898043
37.600723 95.458237 0.945412
39.541412 95.458237 0.832120
41.482101 95.458237 0.685702
43.422791 95.458237 0.717098
45.363480 95.458237 0.790397
47.304176 95.458237 0.714186
49.244865 95.458237 0.705671
51.185555 95.458237 0.822181
53.126244 95.458237 0.859978
55.066933 95.458237 0.795848
57.007622 95.458237 0.924874
58.948311 95.458237 0.000000
60.889008 95.458237 0.000000
62.829697 95.458237 0.000000
64.770386 95.458237 0.000000
66.711075 95.458237 0.477493
68.651764 95.458237 0.557317
70.592453 95.458237 0.481305
72.533142 95.458237 0.438081
74.473831 95.458237 0.456046
76.414520 95.458237 0.471587
78.355209 95.458237 0.490919
80.295898 95.458237 0.396448
82.236588 95.458237 0.456053
84.177277 95.458237 0.440236
86.117981 95.458237 0.381831
88.058670 95.458237 0.297014
89.999359 95.458237 0.290265
91.940048 95.458237 0.345137
93.880737 95.458237 0.373876
95.821426 95.458237 0.330357
97.762115 95.458237 0.318435
99.702805 95.458237 0.353974
101.643494 95.458237 0.275944
103.584183 95.458237 0.249573
105.524872 95.458237 0.274225
107.465561 95.458237 0.257367
109.406250 95.458237 0.240216
111.346939 95.458237 0.244385
113.287628 95.458237 0.274960
115.228333 95.458237 0.271670
117.169022 95.458237 0.260119
119.109711 95.458237 0.300952
121.050400 95.458237 0.308629
122.991089 95.458237 0.326949
124.931778 95.458237 0.386782
126.872467 95.458237 0.340877
128.813156 95.458237 0.305107
130.753845 95.458237 0.277263
132.694534 95.458237 0.302294
134.635223 95.458237 0.332319
136.575912 95.458237 0.295042
138.516602 95.458237 0.319123
140.457291 95.458237 0.000000
-55.552399 93.517548 1.032893
-53.611710 93.517548 0.807043
-51.671021 93.517548 0.668009
-49.730328 93.517548 0.593862
-47.789639 93.517548 0.609732
-45.848949 93.517548 0.568325
-43.908257 93.517548 0.508747
-41.967567 93.517548 0.382827
-40.026878 93.517548 0.426838
-38.086189 93.517548 0.000000
-36.145500 93.517548 0.000000
-34.204807 93.517548 0.000000
-32.264118 93.517548 0.000000
-30.323429 93.517548 0.000000
-28.382738 93.517548 0.000000
-26.442047 93.517548 0.000000
-24.501358 93.517548 0.000000
-22.560669 93.517548 0.000000
-20.619980 93.517548 0.000000
-18.679287 93.517548 0.000000
-16.738598 93.517548 0.000000
-14.797909 93.517548 0.230485
-12.857216 93.517548 0.215438
-10.916527 93.517548 0.271459
-8.975838 93.517548 0.263200
-7.035149 93.517548 0.320599
-5.094460 93.517548 0.476025
-3.153767 93.517548 0.583841
-1.213078 93.517548 0.710115
0.727612 93.517548 0.748772
2.668304 93.517548 0.661149
4.608994 93.517548 0.754764
6.549683 93.517548 0.784676
8.490372 93.517548 0.654754
10.431061 93.517548 0.891475
12.371750 93.517548 0.768107
14.312439 93.517548 0.769125
16.253136 93.517548 0.944887
18.193825 93.517548 0.775930
20.134514 93.517548 0.628564
22.075203 93.517548 0.564657
24.015892 93.517548 0.674344
25.956581 93.517548 0.633343
27.897270 93.517548 0.604606
29.837967 93.517548 0.622305
31.778656 93.517548 0.700989
33.719345 93.517548 0.745627
35.660034 93.517548 0.660333
37.600723 93.517548 0.666901
39.541412 93.517548 0.611373
41.482101 93.517548 0.603556
43.422791 93.517548 0.699302
45.363480 93.517548 0.709437
47.304176 93.517548 0.650169
49.244865 93.517548 0.672923
51.185555 93.517548 0.618729
53.126244 93.517548 0.740578
55.066933 93.517548 0.800137
57.007622 93.517548 1.286818
58.948311 93.517548 0.000000
60.889008 93.517548 0.000000
62.829697 93.517548 0.000000
64.770386 93.517548 0.000000
66.711075 93.517548 0.400893
68.651764 93.517548 0.467534
70.592453 93.517548 0.344114
72.533142 93.517548 0.384650
74.473831 93.517548 0.434999
76.414520 93.517548 0.387930
78.355209 93.517548 0.414436
80.295898 93.517548 0.447110
82.236588 93.517548 0.447873
84.177277 93.517548 0.485290
86.117981 93.517548 0.439000
88.058670 93.517548 0.333276
89.999359 93.517548 0.335471
91.940048 93.517548 0.361196
93.880737 93.517548 0.351641
95.821426 93.517548 0.308687
97.762115 93.517548 0.249555
99.702805 93.517548 0.310657
101.643494 93.517548 0.258006
103.584183 93.517548 0.294606
105.524872 93.517548 0.297931
107.465561 93.517548 0.292248
109.406250 93.517548 0.260665
111.346939 93.517548 0.276654
113.287628 93.517548 0.273801
115.228333 93.517548 0.269798
117.169022 93.517548 0.290683
119.109711 93.517548 0.327416
121.050400 93.517548 0.313313
122.991089 93.517548 0.300399
124.931778 93.517548 0.308689
126.872467 93.517548 0.321834
128.813156 93.517548 0.310632
130.753845 93.517548 0.266332
132.694534 93.517548 0.314902
134.635223 93.517548 0.319722
136.575912 93.517548 0.304585
138.516602 93.517548 0.326943
140.457291 93.517548 0.000000
-55.552399 91.576859 1.142506
-53.611710 91.576859 0.825353
-51.671021 91.576859 0.700620
-49.730328 91.576859 0.581007
-47.789639 91.576859 0.492099
-45.848949 91.576859 0.493719
-43.908257 91.576859 0.502612
-41.967567 91.576859 0.427544
-40.026878 91.576859 0.470907
-38.086189 91.576859 0.000000
-36.145500 91.576859 0.000000
-34.204807 91.576859 0.000000
-32.264118 91.576859 0.000000
-30.323429 91.576859 0.000000
-28.382738 91.576859 0.000000
-26.442047 91.576859 0.000000
-24.501358 91.576859 0.000000
-22.560669 91.576859 0.000000
-20.619980 91.576859 0.000000
-18.679287 91.576859 0.000000
-16.738598 91.576859 0.000000
-14.797909 91.576859 0.242263
-12.857216 91.576859 0.240295
-10.916527 91.576859 0.316915
-8.975838 91.576859 0.315943
-7.035149 91.576859 0.367357
-5.094460 91.576859 0.339207
-3.153767 91.576859 0.493086
-1.213078 91.576859 0.596480
0.727612 91.576859 0.648810
2.668304 91.576859 0.547360
4.608994 91.576859 0.527243
6.549683 91.576859 0.556483
8.490372 91.576859 0.487239
10.431061 91.576859 0.537644
12.371750 91.576859 0.531339
14.312439 91.576859 0.621322
16.253136 91.576859 0.759649
18.193825 91.576859 0.778758
20.134514 91.576859 0.606122
22.075203 91.576859 0.553640
24.015892 91.576859 0.557393
25.956581 91.576859 0.567398
27.897270 91.576859 0.509672
29.837967 91.576859 0.585636
31.778656 91.576859 0.603517
33.719345 91.576859 0.586021
35.660034 91.576859 0.539507
37.600723 91.576859 0.530016
39.541412 91.576859 0.549963
41.482101 91.576859 0.467618
43.422791 91.576859 0.556689
45.363480 91.576859 0.533724
47.304176 91.576859 0.563798
49.244865 91.576859 0.504372
51.185555 91.576859 0.580492
53.126244 91.576859 0.551093
55.066933 91.576859 0.647195
57.007622 91.576859 1.087798
58.948311 91.576859 0.000000
60.889008 91.576859 0.000000
62.829697 91.576859 0.000000
64.770386 91.576859 0.000000
66.711075 91.576859 0.370644
68.651764 91.576859 0.390148
70.592453 91.576859 0.314281
72.533142 91.576859 0.370734
74.473831 91.576859 0.354168
76.414520 91.576859 0.385709
78.355209 91.576859 0.379730
80.295898 91.576859 0.374788
82.236588 91.576859 0.361261
84.177277 91.576859 0.356072
86.117981 91.576859 0.379723
88.058670 91.576859 0.380726
89.999359 91.576859 0.360721
91.940048 91.576859 0.384503
93.880737 91.576859 0.334356
95.821426 91.576859 0.284774
97.762115 91.576859 0.266244
99.702805 91.576859 0.271319
101.643494 91.576859 0.281746
103.584183 91.576859 0.305318
105.524872 91.576859 0.306559
107.465561 91.576859 0.305670
109.406250 91.576859 0.273907
111.346939 91.576859 0.323447
113.287628 91.576859 0.348337
115.228333 91.576859 0.295468
117.169022 91.576859 0.287529
119.109711 91.576859 0.311352
121.050400 91.576859 0.309256
122.991089 91.576859 0.322934
124.931778 91.576859 0.271272
126.872467 91.576859 0.323306
128.813156 91.576859 0.351313
130.753845 91.576859 0.325082
132.694534 91.576859 0.378192
134.635223 91.576859 0.359656
136.575912 91.576859 0.368148
138.516602 91.576859 0.366762
140.457291 91.576859 0.000000
-55.552399 89.636169 0.903871
-53.611710 89.636169 0.838121
-51.671021 89.636169 0.736226
-49.730328 89.636169 0.516609
-47.789639 89.636169 0.516028
-45.848949 89.636169 0.477262
-43.908257 89.636169 0.510851
-41.967567 89.636169 0.443959
-40.026878 89.636169 0.427506
-38.086189 89.636169 0.000000
-36.145500 89.636169 0.000000
-34.204807 89.636169 0.000000
-32.264118 89.636169 0.000000
-30.323429 89.636169 0.000000
-28.382738 89.636169 0.000000
-26.442047 89.636169 0.000000
-24.501358 89.636169 0.000000
-22.560669 89.636169 0.000000
-20.619980 89.636169 0.000000
-18.679287 89.636169 0.000000
-16.738598 89.636169 0.000000
-14.797909 89.636169 0.198763
-12.857216 89.636169 0.230038
-10.916527 89.636169 0.298400
-8.975838 89.636169 0.309018
-7.035149 89.636169 0.296204
-5.094460 89.636169 0.287330
-3.153767 89.636169 0.397255
-1.213078 89.636169 0.339388
0.727612 89.636169 0.361411
2.668304 89.636169 0.352614
4.608994 89.636169 0.408869
6.549683 89.636169 0.416078
8.490372 89.636169 0.358454
10.431061 89.636169 0.370183
12.371750 89.636169 0.405448
14.312439 89.636169 0.411614
16.253136 89.636169 0.527792
18.193825 89.636169 0.545703
20.134514 89.636169 0.591430
22.075203 89.636169 0.430291
24.015892 89.636169 0.358697
25.956581 89.636169 0.363837
27.897270 89.636169 0.370848
29.837967 89.636169 0.467638
31.778656 89.636169 0.477906
33.719345 89.636169 0.435587
35.660034 89.636169 0.401016
37.600723 89.636169 0.488592
39.541412 89.636169 0.389086
41.482101 89.636169 0.378578
43.422791 89.636169 0.450685
45.363480 89.636169 0.487896
47.304176 89.636169 0.463249
49.244865 89.636169 0.445565
51.185555 89.636169 0.538710
53.126244 89.636169 0.628969
55.066933 89.636169 0.549903
57.007622 89.636169 1.151106
58.948311 89.636169 0.000000
60.889008 89.636169 0.000000
62.829697 89.636169 0.000000
64.770386 89.636169 0.000000
66.711075 89.636169 0.328155
68.651764 89.636169 0.391822
70.592453 89.636169 0.295229
72.533142 89.636169 0.319914
74.473831 89.636169 0.459718
76.414520 89.636169 0.474099
78.355209 89.636169 0.454845
80.295898 89.636169 0.453250
82.236588 89.636169 0.378479
84.177277 89.636169 0.260345
86.117981 89.636169 0.290454
88.058670 89.636169 0.382293
89.999359 89.636169 0.326284
91.940048 89.636169 0.330154
93.880737 89.636169 0.301097
95.821426 89.636169 0.274258
97.762115 89.636169 0.283861
99.702805 89.636169 0.278527
101.643494 89.636169 0.297094
103.584183 89.636169 0.326877
105.524872 89.636169 0.298578
107.465561 89.636169 0.259792
109.406250 89.636169 0.276204
111.346939 89.636169 0.310561
113.287628 89.636169 0.338275
115.228333 89.636169 0.306286
117.169022 89.636169 0.287579
119.109711 89.636169 0.300713
121.050400 89.636169 0.286946
122.991089 89.636169 0.306204
124.931778 89.636169 0.295154
126.872467 89.636169 0.329997
128.813156 89.636169 0.373458
130.753845 89.636169 0.379047
132.694534 89.636169 0.379914
134.635223 89.636169 0.391957
136.575912 89.636169 0.375651
138.516602 89.636169 0.387703
140.457291 89.636169 0.000000
-55.552399 87.695480 1.027186
-53.611710 87.695480 0.831227
-51.671021 87.695480 0.565634
-49.730328 87.695480 0.463910
-47.789639 87.695480 0.398087
-45.848949 87.695480 0.442822
-43.908257 87.695480 0.441007
-41.967567 87.695480 0.366627
-40.026878 87.695480 0.339377
-38.086189 87.695480 0.475756
-36.145500 87.695480 0.000000
-34.204807 87.695480 0.000000
-32.264118 87.695480 0.000000
-30.323429 87.695480 0.000000
-28.382738 87.695480 0.000000
-26.442047 87.695480 0.000000
-24.501358 87.695480 0.000000
-22.560669 87.695480 0.000000
-20.619980 87.695480 0.000000
-18.679287 87.695480 0.000000
-16.738598 87.695480 0.000000
-14.797909 87.695480 0.184065
-12.857216 87.695480 0.242626
-10.916527 87.695480 0.289100
-8.975838 87.695480 0.320540
-7.035149 87.695480 0.353404
-5.094460 87.695480 0.356571
-3.153767 87.695480 0.395889
-1.213078 87.695480 0.311398
0.727612 87.695480 0.245131
2.668304 87.695480 0.248394
4.608994 87.695480 0.268452
6.549683 87.695480 0.350784
8.490372 87.695480 0.340039
10.431061 87.695480 0.311409
12.371750 87.695480 0.359983
14.312439 87.695480 0.333118
16.253136 87.695480 0.338155
18.193825 87.695480 0.350109
20.134514 87.695480 0.407013
22.075203 87.695480 0.387531
24.015892 87.695480 0.296348
25.956581 87.695480 0.296110
27.897270 87.695480 0.281581
29.837967 87.695480 0.280377
31.778656 87.695480 0.320480
33.719345 87.695480 0.344207
35.660034 87.695480 0.320284
37.600723 87.695480 0.333443
39.541412 87.695480 0.334529
41.482101 87.695480 0.325009
43.422791 87.695480 0.353464
45.363480 87.695480 0.384770
47.304176 87.695480 0.354584
49.244865 87.695480 0.366039
51.185555 87.695480 0.454788
53.126244 87.695480 0.509467
55.066933 87.695480 0.525728
57.007622 87.695480 0.864271
58.948311 87.695480 0.000000
60.889008 87.695480 0.000000
62.829697 87.695480 0.000000
64.770386 87.695480 0.000000
66.711075 87.695480 0.321720
68.651764 87.695480 0.311674
70.592453 87.695480 0.255862
72.533142 87.695480 0.307498
74.473831 87.695480 0.376749
76.414520 87.695480 0.496769
78.355209 87.695480 0.440336
80.295898 87.695480 0.514223
82.236588 87.695480 0.392343
84.177277 87.695480 0.301064
86.117981 87.695480 0.339395
88.058670 87.695480 0.330184
89.999359 87.695480 0.315677
91.940048 87.695480 0.304510
93.880737 87.695480 0.302421
95.821426 87.695480 0.315393
97.762115 87.695480 0.272441
99.702805 87.695480 0.310577
101.643494 87.695480 0.321576
103.584183 87.695480 0.322518
105.524872 87.695480 0.330089
107.465561 87.695480 0.319578
109.406250 87.695480 0.329255
111.346939 87.695480 0.313702
113.287628 87.695480 0.291858
115.228333 87.695480 0.282814
117.169022 87.695480 0.285871
119.109711 87.695480 0.322411
121.050400 87.695480 0.324383
122.991089 87.695480 0.318985
124.931778 87.695480 0.310658
126.872467 87.695480 0.322573
128.813156 87.695480 0.384233
130.753845 87.695480 0.381917
132.694534 87.695480 0.396464
134.635223 87.695480 0.382392
136.575912 87.695480 0.342512
138.516602 87.695480 0.388570
140.457291 87.695480 0.000000
-55.552399 85.754791 1.194642
-53.611710 85.754791 0.672511
-51.671021 85.754791 0.521550
-49.730328 85.754791 0.429888
-47.789639 85.754791 0.383043
-45.848949 85.754791 0.453697
-43.908257 85.754791 0.376081
-41.967567 85.754791 0.313629
-40.026878 85.754791 0.332117
-38.086189 85.754791 0.425659
-36.145500 85.754791 0.000000
-34.204807 85.754791 0.000000
-32.264118 85.754791 0.000000
-30.323429 85.754791 0.000000
-28.382738 85.754791 0.000000
-26.442047 85.754791 0.000000
-24.501358 85.754791 0.000000
-22.560669 85.754791 0.000000
-20.619980 85.754791 0.000000
-18.679287 85.754791 0.000000
-16.738598 85.754791 0.000000
-14.797909 85.754791 0.151073
-12.857216 85.754791 0.210594
-10.916527 85.754791 0.201562
-8.975838 85.754791 0.237728
-7.035149 85.754791 0.269067
-5.094460 85.754791 0.275003
-3.153767 85.754791 0.327936
-1.213078 85.754791 0.302137
0.727612 85.754791 0.269959
2.668304 85.754791 0.245558
4.608994 85.754791 0.255656
6.549683 85.754791 0.302133
8.490372 85.754791 0.250884
10.431061 85.754791 0.203807
12.371750 85.754791 0.282268
14.312439 85.754791 0.302616
16.253136 85.754791 0.322583
18.193825 85.754791 0.354953
20.134514 85.754791 0.331840
22.075203 85.754791 0.268159
24.015892 85.754791 0.256702
25.956581 85.754791 0.285329
27.897270 85.754791 0.278900
29.837967 85.754791 0.222019
31.778656 85.754791 0.295247
33.719345 85.754791 0.289093
35.660034 85.754791 0.321606
37.600723 85.754791 0.278199
39.541412 85.754791 0.262480
41.482101 85.754791 0.254148
43.422791 85.754791 0.259411
45.363480 85.754791 0.301233
47.304176 85.754791 0.272584
49.244865 85.754791 0.276200
51.185555 85.754791 0.324701
53.126244 85.754791 0.383007
55.066933 85.754791 0.473595
57.007622 85.754791 0.593935
58.948311 85.754791 1.120830
60.889008 85.754791 0.000000
62.829697 85.754791 0.000000
64.770386 85.754791 0.000000
66.711075 85.754791 0.288411
68.651764 85.754791 0.273372
70.592453 85.754791 0.273912
72.533142 85.754791 0.282617
74.473831 85.754791 0.262559
76.414520 85.754791 0.373722
78.355209 85.754791 0.400923
80.295898 85.754791 0.418736
82.236588 85.754791 0.410600
84.177277 85.754791 0.320415
86.117981 85.754791 0.347084
88.058670 85.754791 0.278059
89.999359 85.754791 0.312782
91.940048 85.754791 0.322279
93.880737 85.754791 0.347677
95.821426 85.754791 0.319228
97.762115 85.754791 0.289620
99.702805 85.754791 0.288643
101.643494 85.754791 0.299098
103.584183 85.754791 0.308262
105.524872 85.754791 0.330187
107.465561 85.754791 0.352964
109.406250 85.754791 0.349529
111.346939 85.754791 0.343049
113.287628 85.754791 0.313405
115.228333 85.754791 0.283094
117.169022 85.754791 0.307249
119.109711 85.754791 0.350394
121.050400 85.754791 0.377917