TITLE = "B00001"
VARIABLES = "position", "position(2)", "Vx", "Vy"
ZONE T="Frame 0", I=102, J=78
-55.552357 103.220658 9.692715 -9.261736
-53.611669 103.220658 5.311805 2.441077
-51.670981 103.220658 -7.147254 -1.712070
-49.730293 103.220658 -8.466118 -4.168486
-47.789605 103.220658 -7.864179 3.601491
-45.848917 103.220658 9.543859 0.616990
-43.908229 103.220658 8.166100 0.017943
-41.967541 103.220658 10.325193 0.914210
-40.026853 103.220658 9.805031 3.602302
-38.086165 103.220658 0.528297 -7.860634
-36.145477 103.220658 -3.860455 7.493502
-34.204789 103.220658 -6.075521 0.880084
-32.264101 103.220658 -5.596416 1.861104
-30.323413 103.220658 6.908233 4.356929
-28.382725 103.220658 -4.626401 -10.500674
-26.442037 103.220658 -4.347222 5.257170
-24.501349 103.220658 -6.310518 -5.659373
-22.560661 103.220658 0.384757 0.508896
-20.619973 103.220658 -3.258846 7.261507
-18.679285 103.220658 -1.700254 -5.954308
-16.738597 103.220658 1.825867 -0.109738
-14.797909 103.220658 9.325812 0.926934
-12.857221 103.220658 5.947322 -2.777177
-10.916533 103.220658 1.323709 8.870780
-8.975845 103.220658 -0.931602 7.994748
-7.035157 103.220658 -2.356658 -0.581431
-5.094469 103.220658 8.361553 -3.079745
-3.153781 103.220658 6.359631 -2.737683
-1.213093 103.220658 0.000000 0.000000
0.727595 103.220658 -5.964523 -2.473069
2.668283 103.220658 -2.180568 -6.848007
4.608971 103.220658 9.364848 -10.330798
6.549659 103.220658 -0.791714 -8.668563
8.490347 103.220658 0.505241 -5.515358
10.431035 103.220658 -0.393422 1.248339
12.371723 103.220658 7.595889 -0.506844
14.312411 103.220658 3.854382 -2.188478
16.253099 103.220658 0.000000 0.000000
18.193787 103.220658 0.000000 0.000000
20.134475 103.220658 7.949620 0.237520
22.075163 103.220658 9.720018 -1.754505
24.015851 103.220658 6.230298 -3.316244
25.956539 103.220658 0.078726 0.481372
27.897227 103.220658 8.898019 -1.343197
29.837915 103.220658 7.757886 1.205466
31.778603 103.220658 2.890957 5.507718
33.719291 103.220658 6.325126 8.120485
35.659979 103.220658 0.000000 0.000000
37.600667 103.220658 3.775998 6.443174
39.541355 103.220658 9.478713 5.569717
41.482043 103.220658 5.204144 1.517745
43.422731 103.220658 10.013571 -1.964103
45.363419 103.220658 -1.549770 -2.847586
47.304107 103.220658 -5.480963 3.041889
49.244796 103.220658 -0.159019 -2.962243
51.185484 103.220658 10.578235 -2.581525
53.126172 103.220658 2.010643 -3.351406
55.066860 103.220658 10.575294 -1.433152
57.007548 103.220658 -5.587646 2.940721
58.948236 103.220658 -2.835857 0.390404
60.888924 103.220658 -0.392907 2.609438
62.829612 103.220658 -4.316167 3.765249
64.770300 103.220658 0.000000 0.000000
66.710988 103.220658 -0.960046 4.457769
68.651676 103.220658 2.620465 -10.323314
70.592364 103.220658 9.514935 -0.090759
72.533052 103.220658 -2.693167 -3.676353
74.473740 103.220658 8.728818 0.089077
76.414428 103.220658 1.155541 5.006373
78.355116 103.220658 3.358305 -9.990627
80.295804 103.220658 6.870888 -0.400578
82.236492 103.220658 0.000000 0.000000
84.177180 103.220658 10.053198 4.566118
86.117868 103.220658 10.164595 2.633884
88.058556 103.220658 10.250320 0.984857
89.999244 103.220658 10.438263 -0.074260
91.939932 103.220658 0.000000 0.000000
93.880620 103.220658 9.957544 2.201007
95.821308 103.220658 0.000000 0.000000
97.761996 103.220658 7.630128 0.582237
99.702684 103.220658 5.707527 0.927060
101.643372 103.220658 0.000000 0.000000
103.584060 103.220658 0.000000 0.000000
105.524748 103.220658 8.977976 1.705372
107.465436 103.220658 0.000000 0.000000
109.406124 103.220658 8.564920 -1.032192
111.346812 103.220658 9.845247 -0.486470
113.287500 103.220658 9.777966 2.195641
115.228188 103.220658 9.287740 0.773828
117.168876 103.220658 8.763263 -0.909132
119.109564 103.220658 0.000000 0.000000
121.050252 103.220658 0.000000 0.000000
122.990940 103.220658 0.000000 0.000000
124.931628 103.220658 0.000000 0.000000
126.872316 103.220658 0.000000 0.000000
128.813004 103.220658 0.000000 0.000000
130.753692 103.220658 7.893050 1.180047
132.694380 103.220658 8.405963 -0.688748
134.635068 103.220658 8.295684 0.151336
136.575756 103.220658 7.911566 1.869170
138.516444 103.220658 9.148627 -4.800267
140.457132 103.220658 0.000000 0.000000
-55.552357 101.279970 -1.204478 -2.700274
-53.611669 101.279970 -0.228119 7.302482
-51.670981 101.279970 -1.228399 4.789997
-49.730293 101.279970 -2.809532 -5.161043
-47.789605 101.279970 4.766749 -6.468040
-45.848917 101.279970 9.131469 3.016500
-43.908229 101.279970 8.530738 -4.738708
-41.967541 101.279970 6.867387 -4.075846
-40.026853 101.279970 4.741441 -6.074080
-38.086165 101.279970 -5.562177 6.519502
-36.145477 101.279970 -2.769474 -3.771281
-34.204789 101.279970 -5.990020 -0.716819
-32.264101 101.279970 2.016246 -1.278196
-30.323413 101.279970 -7.483541 -2.308978
-28.382725 101.279970 -0.012315 2.840439
-26.442037 101.279970 -8.267145 -3.918502
-24.501349 101.279970 0.271997 2.274079
-22.560661 101.279970 -4.330741 3.837070
-20.619973 101.279970 2.630011 0.155480
-18.679285 101.279970 0.300348 -6.460755
-16.738597 101.279970 0.102149 -10.092116
-14.797909 101.279970 -0.356349 -9.856472
-12.857221 101.279970 8.437999 1.034986
-10.916533 101.279970 10.700903 1.439319
-8.975845 101.279970 -3.445388 -3.619438
-7.035157 101.279970 2.538903 -7.684652
-5.094469 101.279970 8.606719 -3.948034
-3.153781 101.279970 -5.641600 -4.878069
-1.213093 101.279970 -4.939776 -4.058017
0.727595 101.279970 -7.151868 -3.858731
2.668283 101.279970 -0.914670 -9.673676
4.608971 101.279970 5.806595 -11.048323
6.549659 101.279970 9.928206 0.107829
8.490347 101.279970 2.129660 3.012656
10.431035 101.279970 5.830173 -2.344660
12.371723 101.279970 0.000000 0.000000
14.312411 101.279970 9.920972 0.146434
16.253099 101.279970 7.671502 0.949702
18.193787 101.279970 0.000000 0.000000
20.134475 101.279970 7.711063 -0.205994
22.075163 101.279970 -0.534897 3.179578
24.015851 101.279970 0.510060 0.607820
25.956539 101.279970 -4.111117 -4.368295
27.897227 101.279970 -6.812325 -7.213176
29.837915 101.279970 -7.304375 -9.358207
31.778603 101.279970 -0.047069 6.762974
33.719291 101.279970 10.054865 8.065803
35.659979 101.279970 0.369456 6.530404
37.600667 101.279970 0.000000 0.000000
39.541355 101.279970 6.832946 7.406793
41.482043 101.279970 7.719640 1.085765
43.422731 101.279970 7.968121 -0.160156
45.363419 101.279970 -2.844761 -1.138064
47.304107 101.279970 -5.031688 0.496710
49.244796 101.279970 4.122870 -3.201092
51.185484 101.279970 -0.238268 1.178256
53.126172 101.279970 8.546109 -1.553157
55.066860 101.279970 8.583978 4.629166
57.007548 101.279970 10.444779 -1.030515
58.948236 101.279970 -2.481459 3.765730
60.888924 101.279970 -4.165113 1.997929
62.829612 101.279970 0.475039 0.668637
64.770300 101.279970 1.972604 2.195958
66.710988 101.279970 5.823611 3.936204
68.651676 101.279970 0.742359 7.971758
70.592364 101.279970 7.224802 -2.449653
72.533052 101.279970 7.838431 4.521725
74.473740 101.279970 2.002632 -2.097224
76.414428 101.279970 1.236821 -4.419016
78.355116 101.279970 4.693155 -4.572686
80.295804 101.279970 8.700495 0.927878
82.236492 101.279970 8.572453 -0.291387
84.177180 101.279970 8.760144 -0.216433
86.117868 101.279970 0.000000 0.000000
88.058556 101.279970 0.000000 0.000000
89.999244 101.279970 10.768914 -0.265259
91.939932 101.279970 10.139399 -0.095908
93.880620 101.279970 9.295096 0.709450
95.821308 101.279970 9.207318 0.674801
97.761996 101.279970 9.667551 -0.454374
99.702684 101.279970 7.974300 0.300432
101.643372 101.279970 10.341697 -1.151576
103.584060 101.279970 9.074728 -0.892703
105.524748 101.279970 10.137583 -0.223381
107.465436 101.279970 9.728092 0.695118
109.406124 101.279970 9.353422 -2.184383
111.346812 101.279970 9.694436 3.136078
113.287500 101.279970 0.000000 0.000000
115.228188 101.279970 7.715431 0.311977
117.168876 101.279970 9.902049 -1.243991
119.109564 101.279970 0.000000 0.000000
121.050252 101.279970 9.491354 -0.714147
122.990940 101.279970 9.439498 0.496032
124.931628 101.279970 0.000000 0.000000
126.872316 101.279970 9.278128 0.497950
128.813004 101.279970 0.000000 0.000000
130.753692 101.279970 10.106558 -0.069160
132.694380 101.279970 9.719204 -0.517018
134.635068 101.279970 0.000000 0.000000
136.575756 101.279970 0.000000 0.000000
138.516444 101.279970 9.345321 -0.902175
140.457132 101.279970 0.000000 0.000000
-55.552357 99.339282 9.783907 -10.490919
-53.611669 99.339282 5.469779 2.413343
-51.670981 99.339282 -5.608032 -0.397706
-49.730293 99.339282 -0.517468 -0.731308
-47.789605 99.339282 4.571453 -10.371467
-45.848917 99.339282 6.820009 -6.286631
-43.908229 99.339282 6.518342 -6.651094
-41.967541 99.339282 3.473791 -7.748867
-40.026853 99.339282 4.141765 -4.668045
-38.086165 99.339282 -5.035716 -0.362224
-36.145477 99.339282 -5.961889 -7.514548
-34.204789 99.339282 2.295071 0.549084
-32.264101 99.339282 9.279271 -0.161230
-30.323413 99.339282 5.692275 -0.354764
-28.382725 99.339282 2.204869 -0.973359
-26.442037 99.339282 5.680879 6.509867
-24.501349 99.339282 -5.654672 7.225215
-22.560661 99.339282 5.955802 -4.732443
-20.619973 99.339282 -0.671463 -5.294978
-18.679285 99.339282 -0.230288 -0.621998
-16.738597 99.339282 0.145435 4.198592
-14.797909 99.339282 2.289477 8.086754
-12.857221 99.339282 5.859046 8.035104
-10.916533 99.339282 8.755164 -7.634490
-8.975845 99.339282 4.708343 -8.924626
-7.035157 99.339282 5.072872 -10.407327
-5.094469 99.339282 -2.371739 -4.175581
-3.153781 99.339282 0.000000 0.000000
-1.213093 99.339282 -3.483556 -3.235595
0.727595 99.339282 0.000000 0.000000
2.668283 99.339282 -8.566914 -6.755679
4.608971 99.339282 4.353200 -5.169071
6.549659 99.339282 8.826795 0.877677
8.490347 99.339282 9.585019 -1.071633
10.431035 99.339282 7.539699 -2.129843
12.371723 99.339282 7.564566 -4.339998
14.312411 99.339282 0.000000 0.000000
16.253099 99.339282 9.923700 -1.291120
18.193787 99.339282 10.428563 -0.771779
20.134475 99.339282 8.945443 -1.654805
22.075163 99.339282 3.792604 0.335481
24.015851 99.339282 7.133103 0.633478
25.956539 99.339282 9.925469 0.152797
27.897227 99.339282 -3.574840 -3.413125
29.837915 99.339282 -3.900918 -0.240397
31.778603 99.339282 -1.543875 5.228239
33.719291 99.339282 -8.716627 0.840240
35.659979 99.339282 -0.268998 4.180209
37.600667 99.339282 6.429569 5.770324
39.541355 99.339282 0.000000 0.000000
41.482043 99.339282 7.790003 1.717313
43.422731 99.339282 -4.097534 -0.203673
45.363419 99.339282 10.364053 -0.584995
47.304107 99.339282 0.000000 0.000000
49.244796 99.339282 -8.582469 1.115739
51.185484 99.339282 2.770274 4.574941
53.126172 99.339282 9.654222 2.354620
55.066860 99.339282 7.281315 -2.062497
57.007548 99.339282 -5.240690 -7.742541
58.948236 99.339282 0.000000 0.000000
60.888924 99.339282 0.000000 0.000000
62.829612 99.339282 0.000000 0.000000
64.770300 99.339282 0.000000 0.000000
66.710988 99.339282 0.000000 0.000000
68.651676 99.339282 -1.149514 3.537989
70.592364 99.339282 9.937407 1.422127
72.533052 99.339282 9.133235 1.486245
74.473740 99.339282 3.901430 -3.241084
76.414428 99.339282 5.929094 4.438117
78.355116 99.339282 7.753490 0.509805
80.295804 99.339282 0.000000 0.000000
82.236492 99.339282 8.383157 0.395028
84.177180 99.339282 8.532089 -0.605000
86.117868 99.339282 9.531487 -0.211476
88.058556 99.339282 0.000000 0.000000
89.999244 99.339282 9.942211 1.023342
91.939932 99.339282 0.000000 0.000000
93.880620 99.339282 10.076478 0.259951
95.821308 99.339282 10.149798 -0.907979
97.761996 99.339282 8.131864 -0.946184
99.702684 99.339282 9.373539 -0.580842
101.643372 99.339282 8.431931 0.450363
103.584060 99.339282 9.379391 1.119229
105.524748 99.339282 8.851374 0.298821
107.465436 99.339282 9.696623 0.896864
109.406124 99.339282 8.668017 -0.373753
111.346812 99.339282 9.665966 -0.141853
113.287500 99.339282 9.854244 -0.365093
115.228188 99.339282 10.231883 -0.776513
117.168876 99.339282 0.000000 0.000000
119.109564 99.339282 0.000000 0.000000
121.050252 99.339282 0.000000 0.000000
122.990940 99.339282 9.194090 -0.238474
124.931628 99.339282 10.007571 -0.785509
126.872316 99.339282 8.909521 -0.280712
128.813004 99.339282 9.001875 -0.766346
130.753692 99.339282 0.000000 0.000000
132.694380 99.339282 8.826463 0.218894
134.635068 99.339282 10.527360 0.723821
136.575756 99.339282 9.780381 2.511978
138.516444 99.339282 9.853616 -0.096238
140.457132 99.339282 0.000000 0.000000
-55.552357 97.398594 0.052828 6.952554
-53.611669 97.398594 2.892967 -4.743187
-51.670981 97.398594 7.965152 -1.385965
-49.730293 97.398594 4.820763 -1.232072
-47.789605 97.398594 9.904825 -1.971472
-45.848917 97.398594 3.313996 1.751382
-43.908229 97.398594 6.957164 -9.463886
-41.967541 97.398594 3.800570 -3.248321
-40.026853 97.398594 4.922879 -2.395208
-38.086165 97.398594 -3.215728 -5.821030
-36.145477 97.398594 0.000000 0.000000
-34.204789 97.398594 0.000000 0.000000
-32.264101 97.398594 0.000000 0.000000
-30.323413 97.398594 0.000000 0.000000
-28.382725 97.398594 0.000000 0.000000
-26.442037 97.398594 0.000000 0.000000
-24.501349 97.398594 0.000000 0.000000
-22.560661 97.398594 0.000000 0.000000
-20.619973 97.398594 0.000000 0.000000
-18.679285 97.398594 0.000000 0.000000
-16.738597 97.398594 2.199096 5.199352
-14.797909 97.398594 3.997076 6.529951
-12.857221 97.398594 3.410434 -1.044097
-10.916533 97.398594 9.433082 -8.632476
-8.975845 97.398594 5.037383 4.753611
-7.035157 97.398594 5.713365 -1.206499
-5.094469 97.398594 8.561167 -7.723699
-3.153781 97.398594 -4.476864 -2.568167
-1.213093 97.398594 -2.575349 -5.410677
0.727595 97.398594 -2.581589 3.590073
2.668283 97.398594 -8.856451 -1.992867
4.608971 97.398594 7.319260 -0.661623
6.549659 97.398594 10.211038 0.118671
8.490347 97.398594 0.000000 0.000000
10.431035 97.398594 7.347587 -1.828279
12.371723 97.398594 8.155828 -4.382339
14.312411 97.398594 9.840420 0.599722
16.253099 97.398594 8.638381 -3.584805
18.193787 97.398594 6.185728 -2.400668
20.134475 97.398594 0.000000 0.000000
22.075163 97.398594 10.485477 -0.530792
24.015851 97.398594 9.965699 -0.018212
25.956539 97.398594 9.280186 0.295416
27.897227 97.398594 -6.269719 3.225646
29.837915 97.398594 8.358360 -1.235754
31.778603 97.398594 -8.054872 -2.764174
33.719291 97.398594 1.754810 -4.217641
35.659979 97.398594 0.136909 0.455882
37.600667 97.398594 7.076171 -3.670759
39.541355 97.398594 7.742736 -0.601810
41.482043 97.398594 -2.134000 -1.207091
43.422731 97.398594 6.777191 -0.638833
45.363419 97.398594 10.298817 -1.850320
47.304107 97.398594 6.297386 6.552294
49.244796 97.398594 7.518018 0.961232
51.185484 97.398594 7.519118 0.465776
53.126172 97.398594 5.690401 2.577246
55.066860 97.398594 8.651521 -7.111421
57.007548 97.398594 1.993376 8.496308
58.948236 97.398594 0.000000 0.000000
60.888924 97.398594 0.000000 0.000000
62.829612 97.398594 0.000000 0.000000
64.770300 97.398594 0.000000 0.000000
66.710988 97.398594 0.000000 0.000000
68.651676 97.398594 0.000000 0.000000
70.592364 97.398594 3.973537 1.662014
72.533052 97.398594 6.928397 4.101431
74.473740 97.398594 7.216433 1.260889
76.414428 97.398594 7.668521 2.056598
78.355116 97.398594 4.738247 2.701729
80.295804 97.398594 9.146758 -1.947921
82.236492 97.398594 7.803960 2.093017
84.177180 97.398594 9.862489 -0.647513
86.117868 97.398594 9.122276 1.047337
88.058556 97.398594 0.000000 0.000000
89.999244 97.398594 0.000000 0.000000
91.939932 97.398594 11.047133 -0.657653
93.880620 97.398594 10.072568 -2.119227
95.821308 97.398594 9.983351 0.202140
97.761996 97.398594 10.653899 0.313569
99.702684 97.398594 7.850402 2.274029
101.643372 97.398594 0.000000 0.000000
103.584060 97.398594 9.470123 -0.711287
105.524748 97.398594 10.308571 -2.848767
107.465436 97.398594 7.731174 -2.008394
109.406124 97.398594 9.837839 0.308687
111.346812 97.398594 8.839751 -0.884981
113.287500 97.398594 0.000000 0.000000
115.228188 97.398594 9.004675 -0.254288
117.168876 97.398594 9.457327 -1.187430
119.109564 97.398594 9.208739 1.321249
121.050252 97.398594 0.000000 0.000000
122.990940 97.398594 10.195651 0.904834
124.931628 97.398594 0.000000 0.000000
126.872316 97.398594 0.000000 0.000000
128.813004 97.398594 8.626964 0.245275
130.753692 97.398594 9.443089 0.120609
132.694380 97.398594 8.987149 -0.272236
134.635068 97.398594 0.000000 0.000000
136.575756 97.398594 9.258544 1.452028
138.516444 97.398594 8.057389 -1.049675
140.457132 97.398594 0.000000 0.000000
-55.552357 95.457906 8.982784 -1.389547
-53.611669 95.457906 8.379387 0.313340
-51.670981 95.457906 9.263172 -0.796760
-49.730293 95.457906 0.000000 0.000000
-47.789605 95.457906 9.628703 1.386173
-45.848917 95.457906 -3.701845 -3.090312
-43.908229 95.457906 8.552471 2.358953
-41.967541 95.457906 0.000000 0.000000
-40.026853 95.457906 6.340728 -3.957941
-38.086165 95.457906 0.000000 0.000000
-36.145477 95.457906 0.000000 0.000000
-34.204789 95.457906 0.000000 0.000000
-32.264101 95.457906 0.000000 0.000000
-30.323413 95.457906 0.000000 0.000000
-28.382725 95.457906 0.000000 0.000000
-26.442037 95.457906 0.000000 0.000000
-24.501349 95.457906 0.000000 0.000000
-22.560661 95.457906 0.000000 0.000000
-20.619973 95.457906 0.000000 0.000000
-18.679285 95.457906 0.000000 0.000000
-16.738597 95.457906 4.580668 7.361319
-14.797909 95.457906 -2.642421 -4.171257
-12.857221 95.457906 -4.770995 -3.104245
-10.916533 95.457906 2.560230 -5.707632
-8.975845 95.457906 5.251235 -8.816942
-7.035157 95.457906 8.330126 0.955887
-5.094469 95.457906 -8.326117 3.167003
-3.153781 95.457906 6.230844 -7.671202
-1.213093 95.457906 10.169916 0.206040
0.727595 95.457906 7.837069 -3.814893
2.668283 95.457906 7.491671 -0.168347
4.608971 95.457906 -7.679149 1.011984
6.549659 95.457906 0.000000 0.000000
8.490347 95.457906 5.625957 -2.733517
10.431035 95.457906 6.684206 -2.010106
12.371723 95.457906 9.234572 3.954325
14.312411 95.457906 10.235578 0.826226
16.253099 95.457906 9.864241 -2.210386
18.193787 95.457906 0.000000 0.000000
20.134475 95.457906 6.593433 0.688553
22.075163 95.457906 9.927901 1.109261
24.015851 95.457906 8.568223 0.797811
25.956539 95.457906 0.000000 0.000000
27.897227 95.457906 0.000000 0.000000
29.837915 95.457906 8.950467 -1.881950
31.778603 95.457906 9.356307 -2.503796
33.719291 95.457906 -2.646168 -0.566064
35.659979 95.457906 4.302654 -4.027666
37.600667 95.457906 5.109128 -2.067451
39.541355 95.457906 3.611611 7.159668
41.482043 95.457906 2.259713 1.411090
43.422731 95.457906 5.069728 1.205189
45.363419 95.457906 0.302727 1.041169
47.304107 95.457906 -5.377279 -1.235429
49.244796 95.457906 5.848000 -4.322557
51.185484 95.457906 6.928411 2.030697
53.126172 95.457906 9.407854 0.866694
55.066860 95.457906 2.557483 7.479916
57.007548 95.457906 -0.327388 8.356116
58.948236 95.457906 0.000000 0.000000
60.888924 95.457906 0.000000 0.000000
62.829612 95.457906 0.000000 0.000000
64.770300 95.457906 0.000000 0.000000
66.710988 95.457906 0.000000 0.000000
68.651676 95.457906 0.000000 0.000000
70.592364 95.457906 10.148871 2.803205
72.533052 95.457906 4.852643 3.008168
74.473740 95.457906 8.911472 1.321134
76.414428 95.457906 9.634538 0.314386
78.355116 95.457906 6.637097 1.039356
80.295804 95.457906 4.440938 -6.231234
82.236492 95.457906 7.166227 4.281081
84.177180 95.457906 0.000000 0.000000
86.117868 95.457906 10.060137 1.190248
88.058556 95.457906 8.958613 -0.151753
89.999244 95.457906 9.865630 0.036280
91.939932 95.457906 0.000000 0.000000
93.880620 95.457906 9.899848 0.852888
95.821308 95.457906 0.000000 0.000000
97.761996 95.457906 9.236234 0.266516
99.702684 95.457906 5.822157 -1.180902
101.643372 95.457906 10.102592 -3.604563
103.584060 95.457906 0.000000 0.000000
105.524748 95.457906 0.000000 0.000000
107.465436 95.457906 9.728794 -1.156306
109.406124 95.457906 8.253410 0.494242
111.346812 95.457906 9.125648 -1.311996
113.287500 95.457906 8.998248 -1.097173
115.228188 95.457906 0.000000 0.000000
117.168876 95.457906 0.000000 0.000000
119.109564 95.457906 8.997517 -0.804730
121.050252 95.457906 9.217501 -0.717590
122.990940 95.457906 9.459896 0.355517
124.931628 95.457906 9.469253 1.317357
126.872316 95.457906 8.371489 -0.631169
128.813004 95.457906 10.232326 -0.717076
130.753692 95.457906 0.000000 0.000000
132.694380 95.457906 0.000000 0.000000
134.635068 95.457906 8.844202 0.353524
136.575756 95.457906 0.000000 0.000000
138.516444 95.457906 0.000000 0.000000
140.457132 95.457906 0.000000 0.000000
-55.552357 93.517218 10.053495 1.264362
-53.611669 93.517218 2.539194 -7.352386
-51.670981 93.517218 6.513084 -2.703865
-49.730293 93.517218 6.705775 3.172387
-47.789605 93.517218 -1.155502 0.149341
-45.848917 93.517218 9.590602 -8.757971
-43.908229 93.517218 9.931905 -3.445344
-41.967541 93.517218 9.435181 0.056137
-40.026853 93.517218 3.900230 3.293361
-38.086165 93.517218 0.000000 0.000000
-36.145477 93.517218 0.000000 0.000000
-34.204789 93.517218 0.000000 0.000000
-32.264101 93.517218 0.000000 0.000000
-30.323413 93.517218 0.000000 0.000000
-28.382725 93.517218 0.000000 0.000000
-26.442037 93.517218 0.000000 0.000000
-24.501349 93.517218 0.000000 0.000000
-22.560661 93.517218 0.000000 0.000000
-20.619973 93.517218 0.000000 0.000000
-18.679285 93.517218 0.000000 0.000000
-16.738597 93.517218 -0.793530 8.203125
-14.797909 93.517218 10.668530 5.965569
-12.857221 93.517218 1.277759 -9.057302
-10.916533 93.517218 2.996190 6.415843
-8.975845 93.517218 6.224414 1.091670
-7.035157 93.517218 4.942690 2.432316
-5.094469 93.517218 9.745193 -0.106457
-3.153781 93.517218 6.725624 3.280285
-1.213093 93.517218 10.346817 -1.197726
0.727595 93.517218 -4.067106 -1.464364
2.668283 93.517218 -8.649348 1.381496
4.608971 93.517218 -7.628404 3.784176
6.549659 93.517218 -4.989400 -1.118508
8.490347 93.517218 0.000000 0.000000
10.431035 93.517218 4.209791 1.179104
12.371723 93.517218 10.028513 0.873377
14.312411 93.517218 9.239562 1.863311
16.253099 93.517218 0.000000 0.000000
18.193787 93.517218 8.453724 -3.726466
20.134475 93.517218 6.699688 0.408575
22.075163 93.517218 8.399381 1.090683
24.015851 93.517218 9.212371 1.128400
25.956539 93.517218 7.468727 2.326880
27.897227 93.517218 7.292907 6.663395
29.837915 93.517218 7.910585 2.365790
31.778603 93.517218 9.220613 -0.024032
33.719291 93.517218 10.125784 -6.807505
35.659979 93.517218 9.898931 -0.955925
37.600667 93.517218 5.832725 5.592848
39.541355 93.517218 4.454006 4.894340
41.482043 93.517218 2.715335 8.806443
43.422731 93.517218 4.031923 -2.848065
45.363419 93.517218 0.000000 0.000000
47.304107 93.517218 8.633081 -1.324840
49.244796 93.517218 8.730007 -2.479574
51.185484 93.517218 9.997274 -0.776303
53.126172 93.517218 8.411860 7.453888
55.066860 93.517218 -1.368303 3.688540
57.007548 93.517218 1.377618 4.282932
58.948236 93.517218 0.000000 0.000000
60.888924 93.517218 0.000000 0.000000
62.829612 93.517218 0.000000 0.000000
64.770300 93.517218 0.000000 0.000000
66.710988 93.517218 0.000000 0.000000
68.651676 93.517218 0.000000 0.000000
70.592364 93.517218 9.688980 0.478685
72.533052 93.517218 0.509000 -0.130927
74.473740 93.517218 10.752889 0.718666
76.414428 93.517218 10.602489 1.938184
78.355116 93.517218 7.842615 -3.008178
80.295804 93.517218 10.257887 -9.702885
82.236492 93.517218 6.919698 -0.450762
84.177180 93.517218 7.769369 2.025602
86.117868 93.517218 9.241006 -0.490559
88.058556 93.517218 10.268051 0.372227
89.999244 93.517218 0.000000 0.000000
91.939932 93.517218 7.858037 -0.589081
93.880620 93.517218 9.665787 -0.147929
95.821308 93.517218 0.000000 0.000000
97.761996 93.517218 8.987169 0.019644
99.702684 93.517218 0.000000 0.000000
101.643372 93.517218 0.000000 0.000000
103.584060 93.517218 7.165484 1.310962
105.524748 93.517218 5.419158 0.399659
107.465436 93.517218 10.027347 -0.798411
109.406124 93.517218 0.000000 0.000000
111.346812 93.517218 8.152444 -0.300498
113.287500 93.517218 0.000000 0.000000
115.228188 93.517218 9.091437 -0.025583
117.168876 93.517218 8.625480 0.050742
119.109564 93.517218 11.221010 0.092139
121.050252 93.517218 8.828480 0.099669
122.990940 93.517218 0.000000 0.000000
124.931628 93.517218 0.000000 0.000000
126.872316 93.517218 0.000000 0.000000
128.813004 93.517218 9.888327 0.936218
130.753692 93.517218 0.000000 0.000000
132.694380 93.517218 9.964382 -0.442791
134.635068 93.517218 0.000000 0.000000
136.575756 93.517218 8.391068 0.478415
138.516444 93.517218 0.000000 0.000000
140.457132 93.517218 0.000000 0.000000
-55.552357 91.576530 6.866138 -6.999991
-53.611669 91.576530 7.569311 -1.622620
-51.670981 91.576530 -3.032987 4.181545
-49.730293 91.576530 7.220078 -5.106575
-47.789605 91.576530 -7.444643 -3.851545
-45.848917 91.576530 6.975930 1.769283
-43.908229 91.576530 0.000000 0.000000
-41.967541 91.576530 10.132545 -0.097916
-40.026853 91.576530 0.000000 0.000000
-38.086165 91.576530 2.154521 0.769524
-36.145477 91.576530 0.000000 0.000000
-34.204789 91.576530 0.000000 0.000000
-32.264101 91.576530 0.000000 0.000000
-30.323413 91.576530 0.000000 0.000000
-28.382725 91.576530 0.000000 0.000000
-26.442037 91.576530 0.000000 0.000000
-24.501349 91.576530 0.000000 0.000000
-22.560661 91.576530 0.000000 0.000000
-20.619973 91.576530 0.000000 0.000000
-18.679285 91.576530 0.000000 0.000000
-16.738597 91.576530 -4.052135 0.833996
-14.797909 91.576530 -0.732689 -5.469815
-12.857221 91.576530 10.101139 -0.500987
-10.916533 91.576530 6.113079 -10.364171
-8.975845 91.576530 -5.310771 -8.259505
-7.035157 91.576530 -7.915692 -3.971738
-5.094469 91.576530 -0.310955 2.093101
-3.153781 91.576530 -7.618018 -1.696819
-1.213093 91.576530 8.919819 -0.127388
0.727595 91.576530 7.218151 -0.446779
2.668283 91.576530 -6.048600 4.731690
4.608971 91.576530 -6.827592 5.651773
6.549659 91.576530 5.871411 2.134769
8.490347 91.576530 10.395312 4.954734
10.431035 91.576530 8.788857 2.320793
12.371723 91.576530 10.609482 -0.432185
14.312411 91.576530 0.000000 0.000000
16.253099 91.576530 9.556334 1.607291
18.193787 91.576530 9.342829 5.051813
20.134475 91.576530 6.187719 4.469478
22.075163 91.576530 0.000000 0.000000
24.015851 91.576530 7.922254 0.425972
25.956539 91.576530 9.204350 1.231237
27.897227 91.576530 9.675131 3.121497
29.837915 91.576530 10.315454 -1.986589
31.778603 91.576530 7.992319 -1.096583
33.719291 91.576530 0.000000 0.000000
35.659979 91.576530 0.000000 0.000000
37.600667 91.576530 8.294167 1.627947
39.541355 91.576530 8.742556 3.134071
41.482043 91.576530 6.942491 -1.872773
43.422731 91.576530 9.086329 -1.658013
45.363419 91.576530 9.566170 -0.477390
47.304107 91.576530 9.502869 -2.019514
49.244796 91.576530 0.000000 0.000000
51.185484 91.576530 5.618804 2.618426
53.126172 91.576530 5.694359 1.096852
55.066860 91.576530 8.762794 7.143612
57.007548 91.576530 10.234611 -0.767086
58.948236 91.576530 0.000000 0.000000
60.888924 91.576530 0.000000 0.000000
62.829612 91.576530 0.000000 0.000000
64.770300 91.576530 0.000000 0.000000
66.710988 91.576530 0.000000 0.000000
68.651676 91.576530 0.000000 0.000000
70.592364 91.576530 10.426444 1.774496
72.533052 91.576530 -0.409471 2.038301
74.473740 91.576530 9.566733 3.615719
76.414428 91.576530 9.304062 0.775569
78.355116 91.576530 0.000000 0.000000
80.295804 91.576530 9.187238 -2.747276
82.236492 91.576530 9.114422 0.062161
84.177180 91.576530 9.336716 0.863816
86.117868 91.576530 0.000000 0.000000
88.058556 91.576530 9.795615 -1.013701
89.999244 91.576530 8.644420 0.858329
91.939932 91.576530 0.000000 0.000000
93.880620 91.576530 10.455215 0.103002
95.821308 91.576530 10.159126 -2.239578
97.761996 91.576530 0.000000 0.000000
99.702684 91.576530 10.631216 -1.443488
101.643372 91.576530 6.253120 -0.983690
103.584060 91.576530 0.000000 0.000000
105.524748 91.576530 -6.351369 7.932444
107.465436 91.576530 0.122870 -1.846541
109.406124 91.576530 -0.242764 5.661088
111.346812 91.576530 10.398836 0.699836
113.287500 91.576530 7.624588 -0.220280
115.228188 91.576530 9.744162 -0.283537
117.168876 91.576530 9.018698 0.194821
119.109564 91.576530 6.677478 -1.992878
121.050252 91.576530 8.860122 -0.063975
122.990940 91.576530 8.835007 2.398970
124.931628 91.576530 8.820509 0.349201
126.872316 91.576530 9.321942 -0.245882
128.813004 91.576530 0.000000 0.000000
130.753692 91.576530 9.809553 -0.696134
132.694380 91.576530 8.553269 -0.442632
134.635068 91.576530 9.567698 -0.438849
136.575756 91.576530 7.216043 -1.138104
138.516444 91.576530 0.000000 0.000000
140.457132 91.576530 0.000000 0.000000
-55.552357 89.635842 -3.780070 1.877811
-53.611669 89.635842 1.237328 -4.792175
-51.670981 89.635842 3.745082 -0.302268
-49.730293 89.635842 -6.214418 3.689063
-47.789605 89.635842 7.814969 7.817493
-45.848917 89.635842 7.465737 0.500629
-43.908229 89.635842 6.200471 0.067644
-41.967541 89.635842 0.000000 0.000000
-40.026853 89.635842 10.119704 -0.555384
-38.086165 89.635842 9.845805 1.941265
-36.145477 89.635842 0.000000 0.000000
-34.204789 89.635842 0.000000 0.000000
-32.264101 89.635842 0.000000 0.000000
-30.323413 89.635842 0.000000 0.000000
-28.382725 89.635842 0.000000 0.000000
-26.442037 89.635842 0.000000 0.000000
-24.501349 89.635842 0.000000 0.000000
-22.560661 89.635842 0.000000 0.000000
-20.619973 89.635842 0.000000 0.000000
-18.679285 89.635842 0.000000 0.000000
-16.738597 89.635842 9.990699 0.272697
-14.797909 89.635842 10.427706 -0.127194
-12.857221 89.635842 3.240143 -0.730405
-10.916533 89.635842 5.611252 5.018932
-8.975845 89.635842 3.038132 -5.886541
-7.035157 89.635842 -0.359587 -3.832872
-5.094469 89.635842 3.641126 -7.219795
-3.153781 89.635842 -4.973788 0.239257
-1.213093 89.635842 8.551345 -1.237953
0.727595 89.635842 10.133273 -0.307355
2.668283 89.635842 0.000000 0.000000
4.608971 89.635842 8.209907 1.381381
6.549659 89.635842 10.219331 4.635578
8.490347 89.635842 7.479413 1.823123
10.431035 89.635842 -0.587670 6.727213
12.371723 89.635842 10.281432 4.474255
14.312411 89.635842 8.682926 -3.875516
16.253099 89.635842 0.000000 0.000000
18.193787 89.635842 10.010354 -10.180781
20.134475 89.635842 0.000000 0.000000
22.075163 89.635842 0.000000 0.000000
24.015851 89.635842 9.356840 1.574636
25.956539 89.635842 8.388991 0.885052
27.897227 89.635842 10.463978 -0.493490
29.837915 89.635842 9.094133 -0.717192
31.778603 89.635842 0.000000 0.000000
33.719291 89.635842 0.000000 0.000000