TITLE = "B00001"
VARIABLES = "position", "position(2)", "Avg Vx"
ZONE T="Frame 1" I=102, J=78, F=POINT
-55.552399 103.221001 0.000000
-53.611710 103.221001 8.702992
-51.671021 103.221001 9.626908
-49.730328 103.221001 8.883067
-47.789639 103.221001 10.230554
-45.848949 103.221001 10.602777
-43.908257 103.221001 7.023383
-41.967567 103.221001 6.478216
-40.026878 103.221001 9.194828
-38.086189 103.221001 0.000000
-36.145500 103.221001 0.000000
-34.204807 103.221001 0.000000
-32.264118 103.221001 0.000000
-30.323429 103.221001 0.000000
-28.382738 103.221001 0.000000
-26.442047 103.221001 0.000000
-24.501358 103.221001 0.000000
-22.560669 103.221001 0.000000
-20.619980 103.221001 0.000000
-18.679287 103.221001 0.000000
-16.738598 103.221001 0.000000
-14.797909 103.221001 0.000000
-12.857216 103.221001 5.710587
-10.916527 103.221001 6.151390
-8.975838 103.221001 7.982328
-7.035149 103.221001 8.937293
-5.094460 103.221001 7.868177
-3.153767 103.221001 9.281340
-1.213078 103.221001 11.771888
0.727612 103.221001 10.738802
2.668304 103.221001 9.802218
4.608994 103.221001 7.139437
6.549683 103.221001 8.977570
8.490372 103.221001 10.635522
10.431061 103.221001 9.484549
12.371750 103.221001 10.917852
14.312439 103.221001 12.339878
16.253136 103.221001 12.780065
18.193825 103.221001 7.998201
20.134514 103.221001 8.540863
22.075203 103.221001 11.448663
24.015892 103.221001 12.140963
25.956581 103.221001 12.871408
27.897270 103.221001 12.305462
29.837967 103.221001 13.627751
31.778656 103.221001 16.417747
33.719345 103.221001 13.360664
35.660034 103.221001 10.960505
37.600723 103.221001 10.546403
39.541412 103.221001 12.610804
41.482101 103.221001 15.022297
43.422791 103.221001 7.776268
45.363480 103.221001 6.701701
47.304176 103.221001 9.520628
49.244865 103.221001 9.940987
51.185555 103.221001 7.233591
53.126244 103.221001 7.477101
55.066933 103.221001 8.854706
57.007622 103.221001 0.000000
58.948311 103.221001 0.000000
60.889008 103.221001 0.000000
62.829697 103.221001 0.000000
64.770386 103.221001 0.000000
66.711075 103.221001 8.492896
68.651764 103.221001 8.963828
70.592453 103.221001 9.363348
72.533142 103.221001 8.180148
74.473831 103.221001 7.791958
76.414520 103.221001 8.247134
78.355209 103.221001 7.732426
80.295898 103.221001 8.529408
82.236588 103.221001 9.659198
84.177277 103.221001 9.303342
86.117981 103.221001 10.059164
88.058670 103.221001 8.901400
89.999359 103.221001 8.581752
91.940048 103.221001 11.109920
93.880737 103.221001 10.911318
95.821426 103.221001 7.372941
97.762115 103.221001 6.826180
99.702805 103.221001 6.566338
101.643494 103.221001 7.535844
103.584183 103.221001 8.597483
105.524872 103.221001 8.288358
107.465561 103.221001 6.993700
109.406250 103.221001 5.430176
111.346939 103.221001 5.982728
113.287628 103.221001 7.391098
115.228333 103.221001 7.150265
117.169022 103.221001 6.855583
119.109711 103.221001 6.778283
121.050400 103.221001 7.165937
122.991089 103.221001 7.327441
124.931778 103.221001 11.153121
126.872467 103.221001 11.209029
128.813156 103.221001 9.720333
130.753845 103.221001 7.565961
132.694534 103.221001 7.965958
134.635223 103.221001 8.041821
136.575912 103.221001 8.075284
138.516602 103.221001 9.618772
140.457291 103.221001 0.000000
-55.552399 101.280312 9.199944
-53.611710 101.280312 8.160397
-51.671021 101.280312 9.025905
-49.730328 101.280312 9.310122
-47.789639 101.280312 9.741294
-45.848949 101.280312 9.673211
-43.908257 101.280312 6.889238
-41.967567 101.280312 4.694957
-40.026878 101.280312 6.921442
-38.086189 101.280312 0.000000
-36.145500 101.280312 0.000000
-34.204807 101.280312 0.000000
-32.264118 101.280312 0.000000
-30.323429 101.280312 0.000000
-28.382738 101.280312 0.000000
-26.442047 101.280312 0.000000
-24.501358 101.280312 0.000000
-22.560669 101.280312 0.000000
-20.619980 101.280312 0.000000
-18.679287 101.280312 0.000000
-16.738598 101.280312 0.000000
-14.797909 101.280312 6.185762
-12.857216 101.280312 5.754222
-10.916527 101.280312 5.950765
-8.975838 101.280312 6.369082
-7.035149 101.280312 6.148397
-5.094460 101.280312 7.347073
-3.153767 101.280312 8.726356
-1.213078 101.280312 9.691323
0.727612 101.280312 11.105405
2.668304 101.280312 10.023674
4.608994 101.280312 8.689673
6.549683 101.280312 7.812394
8.490372 101.280312 8.445147
10.431061 101.280312 8.195218
12.371750 101.280312 9.952190
14.312439 101.280312 12.325254
16.253136 101.280312 9.065072
18.193825 101.280312 9.959609
20.134514 101.280312 10.152207
22.075203 101.280312 10.801038
24.015892 101.280312 7.722209
25.956581 101.280312 12.272656
27.897270 101.280312 10.878783
29.837967 101.280312 10.320872
31.778656 101.280312 12.826569
33.719345 101.280312 11.135791
35.660034 101.280312 12.105477
37.600723 101.280312 8.852255
39.541412 101.280312 10.787526
41.482101 101.280312 12.202228
43.422791 101.280312 9.399684
45.363480 101.280312 7.089768
47.304176 101.280312 9.372434
49.244865 101.280312 10.662022
51.185555 101.280312 9.244607
53.126244 101.280312 7.494633
55.066933 101.280312 8.453668
57.007622 101.280312 8.356101
58.948311 101.280312 0.000000
60.889008 101.280312 0.000000
62.829697 101.280312 0.000000
64.770386 101.280312 0.000000
66.711075 101.280312 7.241837
68.651764 101.280312 8.539489
70.592453 101.280312 7.105373
72.533142 101.280312 7.150457
74.473831 101.280312 6.492015
76.414520 101.280312 7.498415
78.355209 101.280312 7.457338
80.295898 101.280312 6.544909
82.236588 101.280312 7.726127
84.177277 101.280312 7.312328
86.117981 101.280312 7.172967
88.058670 101.280312 7.580847
89.999359 101.280312 6.600698
91.940048 101.280312 7.030692
93.880737 101.280312 8.296407
95.821426 101.280312 6.921510
97.762115 101.280312 6.246625
99.702805 101.280312 5.626582
101.643494 101.280312 6.671331
103.584183 101.280312 7.049321
105.524872 101.280312 6.717048
107.465561 101.280312 5.809051
109.406250 101.280312 5.961481
111.346939 101.280312 5.670967
113.287628 101.280312 6.433450
115.228333 101.280312 6.439128
117.169022 101.280312 6.210328
119.109711 101.280312 6.341743
121.050400 101.280312 6.566681
122.991089 101.280312 7.824264
124.931778 101.280312 8.032534
126.872467 101.280312 7.823957
128.813156 101.280312 7.071669
130.753845 101.280312 6.307050
132.694534 101.280312 6.905426
134.635223 101.280312 7.684309
136.575912 101.280312 7.504098
138.516602 101.280312 7.843282
140.457291 101.280312 0.000000
-55.552399 99.339622 11.169267
-53.611710 99.339622 8.670269
-51.671021 99.339622 7.908783
-49.730328 99.339622 7.953982
-47.789639 99.339622 8.385279
-45.848949 99.339622 8.494768
-43.908257 99.339622 6.425527
-41.967567 99.339622 4.809864
-40.026878 99.339622 5.453920
-38.086189 99.339622 0.000000
-36.145500 99.339622 0.000000
-34.204807 99.339622 0.000000
-32.264118 99.339622 0.000000
-30.323429 99.339622 0.000000
-28.382738 99.339622 0.000000
-26.442047 99.339622 0.000000
-24.501358 99.339622 0.000000
-22.560669 99.339622 0.000000
-20.619980 99.339622 0.000000
-18.679287 99.339622 0.000000
-16.738598 99.339622 0.000000
-14.797909 99.339622 6.050710
-12.857216 99.339622 5.942950
-10.916527 99.339622 5.820057
-8.975838 99.339622 6.394469
-7.035149 99.339622 5.908114
-5.094460 99.339622 5.864204
-3.153767 99.339622 7.275824
-1.213078 99.339622 8.364459
0.727612 99.339622 9.425021
2.668304 99.339622 9.654336
4.608994 99.339622 6.630322
6.549683 99.339622 6.273856
8.490372 99.339622 8.024302
10.431061 99.339622 8.457050
12.371750 99.339622 8.465364
14.312439 99.339622 11.504185
16.253136 99.339622 11.282948
18.193825 99.339622 9.949761
20.134514 99.339622 9.122118
22.075203 99.339622 10.668507
24.015892 99.339622 7.455983
25.956581 99.339622 8.512539
27.897270 99.339622 7.573635
29.837967 99.339622 7.598136
31.778656 99.339622 13.701850
33.719345 99.339622 15.053860
35.660034 99.339622 12.556770
37.600723 99.339622 10.817251
39.541412 99.339622 12.612538
41.482101 99.339622 12.152863
43.422791 99.339622 11.526299
45.363480 99.339622 10.427495
47.304176 99.339622 8.671892
49.244865 99.339622 12.100461
51.185555 99.339622 12.582405
53.126244 99.339622 8.001037
55.066933 99.339622 8.921867
57.007622 99.339622 8.571101
58.948311 99.339622 0.000000
60.889008 99.339622 0.000000
62.829697 99.339622 0.000000
64.770386 99.339622 0.000000
66.711075 99.339622 6.951278
68.651764 99.339622 7.155139
70.592453 99.339622 6.454045
72.533142 99.339622 7.097905
74.473831 99.339622 8.711909
76.414520 99.339622 8.360796
78.355209 99.339622 7.685545
80.295898 99.339622 6.741421
82.236588 99.339622 6.337465
84.177277 99.339622 6.764020
86.117981 99.339622 6.587785
88.058670 99.339622 6.823606
89.999359 99.339622 6.352671
91.940048 99.339622 6.707355
93.880737 99.339622 7.784340
95.821426 99.339622 6.858600
97.762115 99.339622 6.276289
99.702805 99.339622 6.061885
101.643494 99.339622 5.720824
103.584183 99.339622 6.110501
105.524872 99.339622 6.414102
107.465561 99.339622 6.456242
109.406250 99.339622 7.238247
111.346939 99.339622 6.726418
113.287628 99.339622 6.102433
115.228333 99.339622 7.200995
117.169022 99.339622 7.043313
119.109711 99.339622 7.101183
121.050400 99.339622 6.516532
122.991089 99.339622 7.062490
124.931778 99.339622 7.122689
126.872467 99.339622 6.126802
128.813156 99.339622 6.344432
130.753845 99.339622 6.607315
132.694534 99.339622 6.663013
134.635223 99.339622 6.405351
136.575912 99.339622 6.531219
138.516602 99.339622 6.517803
140.457291 99.339622 0.000000
-55.552399 97.398933 13.616071
-53.611710 97.398933 13.784497
-51.671021 97.398933 9.918069
-49.730328 97.398933 9.159102
-47.789639 97.398933 7.794871
-45.848949 97.398933 9.294740
-43.908257 97.398933 7.687777
-41.967567 97.398933 5.562833
-40.026878 97.398933 5.967286
-38.086189 97.398933 0.000000
-36.145500 97.398933 0.000000
-34.204807 97.398933 0.000000
-32.264118 97.398933 0.000000
-30.323429 97.398933 0.000000
-28.382738 97.398933 0.000000
-26.442047 97.398933 0.000000
-24.501358 97.398933 0.000000
-22.560669 97.398933 0.000000
-20.619980 97.398933 0.000000
-18.679287 97.398933 0.000000
-16.738598 97.398933 0.000000
-14.797909 97.398933 6.148953
-12.857216 97.398933 5.958074
-10.916527 97.398933 6.278508
-8.975838 97.398933 7.206576
-7.035149 97.398933 6.648937
-5.094460 97.398933 6.142474
-3.153767 97.398933 6.103489
-1.213078 97.398933 6.374063
0.727612 97.398933 6.967724
2.668304 97.398933 6.119376
4.608994 97.398933 5.083584
6.549683 97.398933 6.184689
8.490372 97.398933 8.388634
10.431061 97.398933 9.561669
12.371750 97.398933 8.336135
14.312439 97.398933 8.356209
16.253136 97.398933 9.441963
18.193825 97.398933 10.361337
20.134514 97.398933 9.535797
22.075203 97.398933 9.249842
24.015892 97.398933 6.846182
25.956581 97.398933 8.360675
27.897270 97.398933 7.548646
29.837967 97.398933 8.278844
31.778656 97.398933 9.669020
33.719345 97.398933 9.005225
35.660034 97.398933 11.428843
37.600723 97.398933 9.435993
39.541412 97.398933 8.481559
41.482101 97.398933 9.268258
43.422791 97.398933 10.668434
45.363480 97.398933 11.072432
47.304176 97.398933 8.237142
49.244865 97.398933 10.548888
51.185555 97.398933 11.712274
53.126244 97.398933 8.644893
55.066933 97.398933 10.550082
57.007622 97.398933 9.063764
58.948311 97.398933 0.000000
60.889008 97.398933 0.000000
62.829697 97.398933 0.000000
64.770386 97.398933 0.000000
66.711075 97.398933 6.938777
68.651764 97.398933 6.336773
70.592453 97.398933 5.973989
72.533142 97.398933 6.453187
74.473831 97.398933 7.389184
76.414520 97.398933 7.488222
78.355209 97.398933 8.031198
80.295898 97.398933 6.621758
82.236588 97.398933 7.870929
84.177277 97.398933 9.382986
86.117981 97.398933 8.258185
88.058670 97.398933 7.597513
89.999359 97.398933 6.729790
91.940048 97.398933 6.549634
93.880737 97.398933 6.955076
95.821426 97.398933 6.771036
97.762115 97.398933 6.976710
99.702805 97.398933 6.732513
101.643494 97.398933 6.232305
103.584183 97.398933 5.848689
105.524872 97.398933 6.608070
107.465561 97.398933 5.952785
109.406250 97.398933 6.522552
111.346939 97.398933 6.473662
113.287628 97.398933 6.617700
115.228333 97.398933 7.626653
117.169022 97.398933 6.692478
119.109711 97.398933 6.211996
121.050400 97.398933 6.313522
122.991089 97.398933 6.428315
124.931778 97.398933 6.723253
126.872467 97.398933 7.164674
128.813156 97.398933 6.702090
130.753845 97.398933 6.587192
132.694534 97.398933 5.963436
134.635223 97.398933 7.117650
136.575912 97.398933 6.158547
138.516602 97.398933 6.310839
140.457291 97.398933 0.000000
-55.552399 95.458237 17.579828
-53.611710 95.458237 8.182766
-51.671021 95.458237 8.295538
-49.730328 95.458237 7.733806
-47.789639 95.458237 9.305100
-45.848949 95.458237 8.614479
-43.908257 95.458237 8.445615
-41.967567 95.458237 6.318439
-40.026878 95.458237 5.518890
-38.086189 95.458237 0.000000
-36.145500 95.458237 0.000000
-34.204807 95.458237 0.000000
-32.264118 95.458237 0.000000
-30.323429 95.458237 0.000000
-28.382738 95.458237 0.000000
-26.442047 95.458237 0.000000
-24.501358 95.458237 0.000000
-22.560669 95.458237 0.000000
-20.619980 95.458237 0.000000
-18.679287 95.458237 0.000000
-16.738598 95.458237 0.000000
-14.797909 95.458237 5.614266
-12.857216 95.458237 5.811342
-10.916527 95.458237 6.353458
-8.975838 95.458237 6.682613
-7.035149 95.458237 6.550194
-5.094460 95.458237 5.921529
-3.153767 95.458237 5.327798
-1.213078 95.458237 5.639750
0.727612 95.458237 7.128654
2.668304 95.458237 6.189038
4.608994 95.458237 6.807747
6.549683 95.458237 8.510960
8.490372 95.458237 10.037977
10.431061 95.458237 12.990417
12.371750 95.458237 11.772289
14.312439 95.458237 10.016257
16.253136 95.458237 8.734396
18.193825 95.458237 9.246441
20.134514 95.458237 9.910325
22.075203 95.458237 9.335883
24.015892 95.458237 8.616220
25.956581 95.458237 7.824754
27.897270 95.458237 7.532095
29.837967 95.458237 7.077813
31.778656 95.458237 8.799766
33.719345 95.458237 9.123958
35.660034 95.458237 10.040519
37.600723 95.458237 12.186713
39.541412 95.458237 10.555691
41.482101 95.458237 7.989296
43.422791 95.458237 10.110293
45.363480 95.458237 11.173180
47.304176 95.458237 7.297134
49.244865 95.458237 8.468443
51.185555 95.458237 9.713217
53.126244 95.458237 8.532997
55.066933 95.458237 10.097753
57.007622 95.458237 9.998089
58.948311 95.458237 0.000000
60.889008 95.458237 0.000000
62.829697 95.458237 0.000000
64.770386 95.458237 7.936161
66.711075 95.458237 6.892418
68.651764 95.458237 7.576373
70.592453 95.458237 8.833512
72.533142 95.458237 7.366700
74.473831 95.458237 7.232166
76.414520 95.458237 7.706677
78.355209 95.458237 8.868449
80.295898 95.458237 8.656744
82.236588 95.458237 7.113043
84.177277 95.458237 8.095682
86.117981 95.458237 9.234561
88.058670 95.458237 8.848109
89.999359 95.458237 6.582035
91.940048 95.458237 5.901229
93.880737 95.458237 6.357183
95.821426 95.458237 6.857808
97.762115 95.458237 8.132280
99.702805 95.458237 8.004958
101.643494 95.458237 6.987186
103.584183 95.458237 5.884123
105.524872 95.458237 5.984316
107.465561 95.458237 6.094629
109.406250 95.458237 6.625508
111.346939 95.458237 6.437325
113.287628 95.458237 6.440757
115.228333 95.458237 6.775204
117.169022 95.458237 5.569563
119.109711 95.458237 5.842821
121.050400 95.458237 5.708854
122.991089 95.458237 6.022319
124.931778 95.458237 5.541163
126.872467 95.458237 6.934334
128.813156 95.458237 6.290868
130.753845 95.458237 5.727026
132.694534 95.458237 6.127109
134.635223 95.458237 7.667344
136.575912 95.458237 6.859143
138.516602 95.458237 5.832051
140.457291 95.458237 0.000000
-55.552399 93.517548 10.588886
-53.611710 93.517548 5.118038
-51.671021 93.517548 9.446365
-49.730328 93.517548 6.350447
-47.789639 93.517548 5.879673
-45.848949 93.517548 7.191646
-43.908257 93.517548 8.408155
-41.967567 93.517548 5.624460
-40.026878 93.517548 4.447028
-38.086189 93.517548 6.195668
-36.145500 93.517548 0.000000
-34.204807 93.517548 0.000000
-32.264118 93.517548 0.000000
-30.323429 93.517548 0.000000
-28.382738 93.517548 0.000000
-26.442047 93.517548 0.000000
-24.501358 93.517548 0.000000
-22.560669 93.517548 0.000000
-20.619980 93.517548 0.000000
-18.679287 93.517548 0.000000
-16.738598 93.517548 0.000000
-14.797909 93.517548 5.118462
-12.857216 93.517548 5.905397
-10.916527 93.517548 7.056435
-8.975838 93.517548 6.691638
-7.035149 93.517548 6.610101
-5.094460 93.517548 7.035279
-3.153767 93.517548 6.620575
-1.213078 93.517548 7.097429
0.727612 93.517548 7.779619
2.668304 93.517548 6.586156
4.608994 93.517548 8.916894
6.549683 93.517548 12.705793
8.490372 93.517548 12.106071
10.431061 93.517548 12.461438
12.371750 93.517548 11.907531
14.312439 93.517548 10.159846
16.253136 93.517548 9.931812
18.193825 93.517548 9.950439
20.134514 93.517548 9.182142
22.075203 93.517548 7.315980
24.015892 93.517548 9.510193
25.956581 93.517548 9.981030
27.897270 93.517548 9.219454
29.837967 93.517548 8.294548
31.778656 93.517548 8.369446
33.719345 93.517548 9.754452
35.660034 93.517548 11.191500
37.600723 93.517548 9.508657
39.541412 93.517548 10.139983
41.482101 93.517548 9.416015
43.422791 93.517548 8.513793
45.363480 93.517548 8.141916
47.304176 93.517548 8.950062
49.244865 93.517548 8.186729
51.185555 93.517548 9.158277
53.126244 93.517548 8.218440
55.066933 93.517548 9.905943
57.007622 93.517548 9.955171
58.948311 93.517548 0.000000
60.889008 93.517548 0.000000
62.829697 93.517548 0.000000
64.770386 93.517548 7.453689
66.711075 93.517548 6.919010
68.651764 93.517548 9.285395
70.592453 93.517548 8.889421
72.533142 93.517548 7.029980
74.473831 93.517548 6.267764
76.414520 93.517548 7.959554
78.355209 93.517548 7.684495
80.295898 93.517548 8.795351
82.236588 93.517548 7.914528
84.177277 93.517548 7.163381
86.117981 93.517548 8.917083
88.058670 93.517548 8.727815
89.999359 93.517548 7.453993
91.940048 93.517548 6.763939
93.880737 93.517548 5.916237
95.821426 93.517548 6.592106
97.762115 93.517548 7.727665
99.702805 93.517548 7.690273
101.643494 93.517548 7.764122
103.584183 93.517548 6.351626
105.524872 93.517548 6.543168
107.465561 93.517548 6.904566
109.406250 93.517548 6.741207
111.346939 93.517548 6.040611
113.287628 93.517548 6.289797
115.228333 93.517548 6.036722
117.169022 93.517548 5.172370
119.109711 93.517548 5.636864
121.050400 93.517548 5.921135
122.991089 93.517548 5.444033
124.931778 93.517548 5.711573
126.872467 93.517548 6.874178
128.813156 93.517548 5.948427
130.753845 93.517548 5.596071
132.694534 93.517548 6.539794
134.635223 93.517548 7.074049
136.575912 93.517548 6.197907
138.516602 93.517548 6.166498
140.457291 93.517548 0.000000
-55.552399 91.576859 16.310188
-53.611710 91.576859 12.673366
-51.671021 91.576859 9.429282
-49.730328 91.576859 8.152670
-47.789639 91.576859 5.918971
-45.848949 91.576859 5.690037
-43.908257 91.576859 7.448356
-41.967567 91.576859 6.610718
-40.026878 91.576859 5.941441
-38.086189 91.576859 6.157733
-36.145500 91.576859 0.000000
-34.204807 91.576859 0.000000
-32.264118 91.576859 0.000000
-30.323429 91.576859 0.000000
-28.382738 91.576859 0.000000
-26.442047 91.576859 0.000000
-24.501358 91.576859 0.000000
-22.560669 91.576859 0.000000
-20.619980 91.576859 0.000000
-18.679287 91.576859 0.000000
-16.738598 91.576859 0.000000
-14.797909 91.576859 5.240823
-12.857216 91.576859 6.067919
-10.916527 91.576859 6.481424
-8.975838 91.576859 7.240875
-7.035149 91.576859 7.085372
-5.094460 91.576859 6.865752
-3.153767 91.576859 6.868747
-1.213078 91.576859 8.936659
0.727612 91.576859 9.747485
2.668304 91.576859 7.633849
4.608994 91.576859 9.566684
6.549683 91.576859 10.567427
8.490372 91.576859 10.555696
10.431061 91.576859 9.472394
12.371750 91.576859 9.044403
14.312439 91.576859 8.427979
16.253136 91.576859 8.515628
18.193825 91.576859 8.471821
20.134514 91.576859 6.919103
22.075203 91.576859 6.380235
24.015892 91.576859 9.083304
25.956581 91.576859 9.760771
27.897270 91.576859 10.079710
29.837967 91.576859 8.987937
31.778656 91.576859 7.732569
33.719345 91.576859 7.301481
35.660034 91.576859 7.693660
37.600723 91.576859 8.520221
39.541412 91.576859 9.735600
41.482101 91.576859 9.776821
43.422791 91.576859 7.494988
45.363480 91.576859 7.322658
47.304176 91.576859 9.341040
49.244865 91.576859 9.625981
51.185555 91.576859 9.093805
53.126244 91.576859 8.600702
55.066933 91.576859 7.138900
57.007622 91.576859 7.716211
58.948311 91.576859 0.000000
60.889008 91.576859 0.000000
62.829697 91.576859 0.000000
64.770386 91.576859 9.132842
66.711075 91.576859 6.935347
68.651764 91.576859 7.351300
70.592453 91.576859 7.848180
72.533142 91.576859 6.520066
74.473831 91.576859 5.852494
76.414520 91.576859 8.960601
78.355209 91.576859 6.866198
80.295898 91.576859 6.683815
82.236588 91.576859 7.433480
84.177277 91.576859 7.326111
86.117981 91.576859 7.052471
88.058670 91.576859 7.792265
89.999359 91.576859 7.862702
91.940048 91.576859 7.664310
93.880737 91.576859 7.686999
95.821426 91.576859 6.922290
97.762115 91.576859 7.388057
99.702805 91.576859 6.754099
101.643494 91.576859 6.750839
103.584183 91.576859 6.664536
105.524872 91.576859 6.624574
107.465561 91.576859 7.380221
109.406250 91.576859 6.604921
111.346939 91.576859 6.889331
113.287628 91.576859 7.166770
115.228333 91.576859 6.613769
117.169022 91.576859 6.031123
119.109711 91.576859 5.749620
121.050400 91.576859 6.055256
122.991089 91.576859 5.716265
124.931778 91.576859 5.632365
126.872467 91.576859 6.108997
128.813156 91.576859 5.511115
130.753845 91.576859 6.118629
132.694534 91.576859 6.886899
134.635223 91.576859 6.096781
136.575912 91.576859 5.936481
138.516602 91.576859 6.524930
140.457291 91.576859 0.000000
-55.552399 89.636169 10.175401
-53.611710 89.636169 12.010315
-51.671021 89.636169 9.522985
-49.730328 89.636169 7.243728
-47.789639 89.636169 6.715061
-45.848949 89.636169 6.278498
-43.908257 89.636169 9.149326
-41.967567 89.636169 7.984506
-40.026878 89.636169 7.853692
-38.086189 89.636169 8.789798
-36.145500 89.636169 0.000000
-34.204807 89.636169 0.000000
-32.264118 89.636169 0.000000
-30.323429 89.636169 0.000000
-28.382738 89.636169 0.000000
-26.442047 89.636169 0.000000
-24.501358 89.636169 0.000000
-22.560669 89.636169 0.000000
-20.619980 89.636169 0.000000
-18.679287 89.636169 0.000000
-16.738598 89.636169 0.000000
-14.797909 89.636169 5.373677
-12.857216 89.636169 5.616239
-10.916527 89.636169 6.075704
-8.975838 89.636169 6.556925
-7.035149 89.636169 6.958243
-5.094460 89.636169 7.946316
-3.153767 89.636169 8.471682
-1.213078 89.636169 8.926326
0.727612 89.636169 7.747476
2.668304 89.636169 7.185289
4.608994 89.636169 6.794280
6.549683 89.636169 7.992692
8.490372 89.636169 9.754824
10.431061 89.636169 9.487470
12.371750 89.636169 7.627850
14.312439 89.636169 6.038872
16.253136 89.636169 6.348137
18.193825 89.636169 6.734388
20.134514 89.636169 6.904794
22.075203 89.636169 6.725470
24.015892 89.636169 8.235253
25.956581 89.636169 8.477429
27.897270 89.636169 8.853795
29.837967 89.636169 7.902434
31.778656 89.636169 6.375393
33.719345 89.636169 7.395910
35.660034 89.636169 6.812318
37.600723 89.636169 6.839436
39.541412 89.636169 9.232017
41.482101 89.636169 8.557000
43.422791 89.636169 8.049382
45.363480 89.636169 6.746199
47.304176 89.636169 8.603602
49.244865 89.636169 8.950835
51.185555 89.636169 8.378244
53.126244 89.636169 8.797810
55.066933 89.636169 8.411926
57.007622 89.636169 5.693422
58.948311 89.636169 0.000000
60.889008 89.636169 0.000000
62.829697 89.636169 0.000000
64.770386 89.636169 8.765388
66.711075 89.636169 7.160960
68.651764 89.636169 7.606953
70.592453 89.636169 7.552783
72.533142 89.636169 7.053009
74.473831 89.636169 6.461434
76.414520 89.636169 6.737864
78.355209 89.636169 8.200349
80.295898 89.636169 7.508507
82.236588 89.636169 7.449278
84.177277 89.636169 6.695103
86.117981 89.636169 6.951817
88.058670 89.636169 7.185404
89.999359 89.636169 6.800832
91.940048 89.636169 7.934239
93.880737 89.636169 7.302664
95.821426 89.636169 7.095614
97.762115 89.636169 7.266458
99.702805 89.636169 6.588885
101.643494 89.636169 6.707719
103.584183 89.636169 6.832373
105.524872 89.636169 6.877075
107.465561 89.636169 6.680686
109.406250 89.636169 5.545964
111.346939 89.636169 6.622870
113.287628 89.636169 7.528510
115.228333 89.636169 7.962947
117.169022 89.636169 6.739036
119.109711 89.636169 5.803751
121.050400 89.636169 5.863348
122.991089 89.636169 5.843845
124.931778 89.636169 5.942612
126.872467 89.636169 6.159447
128.813156 89.636169 6.353055
130.753845 89.636169 6.549487
132.694534 89.636169 6.570724
134.635223 89.636169 5.898645
136.575912 89.636169 5.807702
138.516602 89.636169 6.552741
140.457291 89.636169 0.000000
-55.552399 87.695480 10.753707
-53.611710 87.695480 8.153220
-51.671021 87.695480 7.912853
-49.730328 87.695480 7.496864
-47.789639 87.695480 6.332330
-45.848949 87.695480 6.453001
-43.908257 87.695480 8.780312
-41.967567 87.695480 8.688560
-40.026878 87.695480 8.162955
-38.086189 87.695480 7.446914
-36.145500 87.695480 0.000000
-34.204807 87.695480 0.000000
-32.264118 87.695480 0.000000
-30.323429 87.695480 0.000000
-28.382738 87.695480 0.000000
-26.442047 87.695480 0.000000
-24.501358 87.695480 0.000000
-22.560669 87.695480 0.000000
-20.619980 87.695480 0.000000
-18.679287 87.695480 0.000000
-16.738598 87.695480 5.551148
-14.797909 87.695480 5.323406
-12.857216 87.695480 5.595556
-10.916527 87.695480 4.994673
-8.975838 87.695480 5.835981
-7.035149 87.695480 7.241137
-5.094460 87.695480 7.561186
-3.153767 87.695480 8.632984
-1.213078 87.695480 7.421711
0.727612 87.695480 6.850183
2.668304 87.695480 6.389835
4.608994 87.695480 5.949170
6.549683 87.695480 6.052325
8.490372 87.695480 7.324504
10.431061 87.695480 7.751870
12.371750 87.695480 7.469591
14.312439 87.695480 6.187760
16.253136 87.695480 7.351896
18.193825 87.695480 7.277626
20.134514 87.695480 7.679348
22.075203 87.695480 8.466388
24.015892 87.695480 7.661306
25.956581 87.695480 7.343412
27.897270 87.695480 7.516509
29.837967 87.695480 6.672609
31.778656 87.695480 6.697805
33.719345 87.695480 7.710101
35.660034 87.695480 7.123933
37.600723 87.695480 5.997897
39.541412 87.695480 6.905761
41.482101 87.695480 7.546624
43.422791 87.695480 7.122252
45.363480 87.695480 6.495870
47.304176 87.695480 7.107133
49.244865 87.695480 7.463853
51.185555 87.695480 8.291590
53.126244 87.695480 8.882728
55.066933 87.695480 9.645324
57.007622 87.695480 7.213581
58.948311 87.695480 7.228761
60.889008 87.695480 0.000000
62.829697 87.695480 0.000000
64.770386 87.695480 9.412545
66.711075 87.695480 8.027634
68.651764 87.695480 7.406841
70.592453 87.695480 7.162828
72.533142 87.695480 7.098563
74.473831 87.695480 7.499014
76.414520 87.695480 8.118906
78.355209 87.695480 8.841248
80.295898 87.695480 8.463859
82.236588 87.695480 7.407105
84.177277 87.695480 6.314700
86.117981 87.695480 6.409031
88.058670 87.695480 6.225879
89.999359 87.695480 6.210711
91.940048 87.695480 6.857244
93.880737 87.695480 7.163196
95.821426 87.695480 6.675410
97.762115 87.695480 6.776109
99.702805 87.695480 6.267192
101.643494 87.695480 6.115775
103.584183 87.695480 6.291543
105.524872 87.695480 6.526065
107.465561 87.695480 6.024755
109.406250 87.695480 5.855250
111.346939 87.695480 6.194513
113.287628 87.695480 6.628718
115.228333 87.695480 6.932583
117.169022 87.695480 6.535523
119.109711 87.695480 5.836462
121.050400 87.695480 6.566601
122.991089 87.695480 6.644757
124.931778 87.695480 6.471155
126.872467 87.695480 6.806432
128.813156 87.695480 6.486139
130.753845 87.695480 7.053340
132.694534 87.695480 7.237494
134.635223 87.695480 6.730266
136.575912 87.695480 6.565778
138.516602 87.695480 6.412917
140.457291 87.695480 0.000000
-55.552399 85.754791 9.352240
-53.611710 85.754791 11.355200
-51.671021 85.754791 8.062117
-49.730328 85.754791 6.205205
-47.789639 85.754791 6.017244
-45.848949 85.754791 8.168612
-43.908257 85.754791 8.160123
-41.967567 85.754791 8.557656
-40.026878 85.754791 6.956722
-38.086189 85.754791 6.745945
-36.145500 85.754791 0.000000
-34.204807 85.754791 0.000000
-32.264118 85.754791 0.000000
-30.323429 85.754791 0.000000
-28.382738 85.754791 0.000000
-26.442047 85.754791 0.000000
-24.501358 85.754791 0.000000
-22.560669 85.754791 0.000000
-20.619980 85.754791 0.000000
-18.679287 85.754791 0.000000
-16.738598 85.754791 5.455219
-14.797909 85.754791 5.416263
-12.857216 85.754791 5.271059
-10.916527 85.754791 4.956053
-8.975838 85.754791 5.742887
-7.035149 85.754791 7.496616
-5.094460 85.754791 6.700813
-3.153767 85.754791 6.294425
-1.213078 85.754791 6.829752
0.727612 85.754791 6.330920
2.668304 85.754791 6.059716
4.608994 85.754791 5.922439
6.549683 85.754791 6.016637
8.490372 85.754791 6.379561
10.431061 85.754791 6.170827
12.371750 85.754791 6.023089
14.312439 85.754791 6.233057
16.253136 85.754791 6.901627
18.193825 85.754791 6.640886
20.134514 85.754791 6.564557
22.075203 85.754791 7.147604
24.015892 85.754791 6.657812
25.956581 85.754791 6.525791
27.897270 85.754791 6.581467
29.837967 85.754791 6.637712
31.778656 85.754791 6.687299
33.719345 85.754791 7.611586
35.660034 85.754791 8.257815
37.600723 85.754791 7.091799
39.541412 85.754791 6.841208
41.482101 85.754791 7.455488
43.422791 85.754791 6.990851
45.363480 85.754791 5.747434
47.304176 85.754791 6.524176
49.244865 85.754791 7.487038
51.185555 85.754791 7.887858
53.126244 85.754791 7.563138
55.066933 85.754791 7.991183
57.007622 85.754791 6.746682
58.948311 85.754791 6.996689
60.889008 85.754791 0.000000
62.829697 85.754791 0.000000
64.770386 85.754791 8.767744
66.711075 85.754791 7.153631
68.651764 85.754791 6.700081
70.592453 85.754791 6.740411
72.533142 85.754791 6.654309
74.473831 85.754791 7.794231
76.414520 85.754791 8.509481
78.355209 85.754791 8.263453
80.295898 85.754791 8.583107
82.236588 85.754791 8.227892
84.177277 85.754791 6.757800
86.117981 85.754791 7.158595
88.058670 85.754791 6.546814
89.999359 85.754791 6.073485
91.940048 85.754791 6.627152
93.880737 85.754791 7.752435
95.821426 85.754791 7.548136
97.762115 85.754791 6.588303
99.702805 85.754791 6.306659
101.643494 85.754791 6.486129
103.584183 85.754791 7.226774
105.524872 85.754791 7.350043
107.465561 85.754791 6.709538
109.406250 85.754791 6.830532
111.346939 85.754791 6.978316
113.287628 85.754791 6.763519
115.228333 85.754791 7.286211