TITLE = "B00006"
VARIABLES = "position", "position(2)", "Length of RMS V"
ZONE T="Frame 1" I=102, J=78, F=POINT
-55.552399 103.221001 0.000000
-53.611710 103.221001 2.925957
-51.671021 103.221001 1.676571
-49.730328 103.221001 1.218117
-47.789639 103.221001 1.066805
-45.848949 103.221001 1.153978
-43.908257 103.221001 1.107966
-41.967567 103.221001 1.120452
-40.026878 103.221001 1.190902
-38.086189 103.221001 0.000000
-36.145500 103.221001 0.000000
-34.204807 103.221001 0.000000
-32.264118 103.221001 0.000000
-30.323429 103.221001 0.000000
-28.382738 103.221001 0.000000
-26.442047 103.221001 0.000000
-24.501358 103.221001 0.000000
-22.560669 103.221001 0.000000
-20.619980 103.221001 0.000000
-18.679287 103.221001 0.000000
-16.738598 103.221001 0.000000
-14.797909 103.221001 0.000000
-12.857216 103.221001 0.547995
-10.916527 103.221001 0.499522
-8.975838 103.221001 0.664170
-7.035149 103.221001 1.202883
-5.094460 103.221001 1.309780
-3.153767 103.221001 1.201103
-1.213078 103.221001 1.301922
0.727612 103.221001 1.288910
2.668304 103.221001 1.296717
4.608994 103.221001 1.461101
6.549683 103.221001 1.438045
8.490372 103.221001 1.290212
10.431061 103.221001 1.176940
12.371750 103.221001 1.159938
14.312439 103.221001 1.422746
16.253136 103.221001 1.919098
18.193825 103.221001 2.186822
20.134514 103.221001 1.697328
22.075203 103.221001 1.413143
24.015892 103.221001 1.163867
25.956581 103.221001 1.162656
27.897270 103.221001 1.169396
29.837967 103.221001 1.117136
31.778656 103.221001 1.461231
33.719345 103.221001 1.914780
35.660034 103.221001 1.596761
37.600723 103.221001 1.682604
39.541412 103.221001 1.758713
41.482101 103.221001 2.106989
43.422791 103.221001 2.081300
45.363480 103.221001 1.634053
47.304176 103.221001 1.445145
49.244865 103.221001 1.135064
51.185555 103.221001 1.116505
53.126244 103.221001 1.438727
55.066933 103.221001 1.224254
57.007622 103.221001 0.000000
58.948311 103.221001 0.000000
60.889008 103.221001 0.000000
62.829697 103.221001 0.000000
64.770386 103.221001 0.000000
66.711075 103.221001 1.115169
68.651764 103.221001 1.074431
70.592453 103.221001 0.809073
72.533142 103.221001 0.785585
74.473831 103.221001 0.908417
76.414520 103.221001 0.862735
78.355209 103.221001 0.803444
80.295898 103.221001 0.625581
82.236588 103.221001 0.833041
84.177277 103.221001 0.767455
86.117981 103.221001 0.772852
88.058670 103.221001 0.877931
89.999359 103.221001 0.939728
91.940048 103.221001 0.839069
93.880737 103.221001 0.744312
95.821426 103.221001 0.673292
97.762115 103.221001 0.778615
99.702805 103.221001 0.550872
101.643494 103.221001 0.608876
103.584183 103.221001 0.602211
105.524872 103.221001 0.612409
107.465561 103.221001 0.609939
109.406250 103.221001 0.604718
111.346939 103.221001 0.569114
113.287628 103.221001 0.710914
115.228333 103.221001 0.626133
117.169022 103.221001 0.692361
119.109711 103.221001 0.683154
121.050400 103.221001 0.724478
122.991089 103.221001 0.802250
124.931778 103.221001 0.835840
126.872467 103.221001 0.754680
128.813156 103.221001 0.753999
130.753845 103.221001 0.753005
132.694534 103.221001 0.627171
134.635223 103.221001 0.612787
136.575912 103.221001 0.598498
138.516602 103.221001 0.634334
140.457291 103.221001 0.000000
-55.552399 101.280312 6.642909
-53.611710 101.280312 2.375437
-51.671021 101.280312 1.288036
-49.730328 101.280312 1.070909
-47.789639 101.280312 1.041350
-45.848949 101.280312 0.881569
-43.908257 101.280312 1.101898
-41.967567 101.280312 0.799809
-40.026878 101.280312 0.981923
-38.086189 101.280312 0.000000
-36.145500 101.280312 0.000000
-34.204807 101.280312 0.000000
-32.264118 101.280312 0.000000
-30.323429 101.280312 0.000000
-28.382738 101.280312 0.000000
-26.442047 101.280312 0.000000
-24.501358 101.280312 0.000000
-22.560669 101.280312 0.000000
-20.619980 101.280312 0.000000
-18.679287 101.280312 0.000000
-16.738598 101.280312 0.000000
-14.797909 101.280312 0.000000
-12.857216 101.280312 0.469404
-10.916527 101.280312 0.448473
-8.975838 101.280312 0.606326
-7.035149 101.280312 1.057259
-5.094460 101.280312 1.016262
-3.153767 101.280312 0.997109
-1.213078 101.280312 1.085110
0.727612 101.280312 1.158369
2.668304 101.280312 1.128456
4.608994 101.280312 1.366997
6.549683 101.280312 1.262410
8.490372 101.280312 1.110456
10.431061 101.280312 1.116692
12.371750 101.280312 1.123022
14.312439 101.280312 1.346864
16.253136 101.280312 1.511275
18.193825 101.280312 1.910582
20.134514 101.280312 1.463665
22.075203 101.280312 1.313087
24.015892 101.280312 1.160374
25.956581 101.280312 1.084044
27.897270 101.280312 1.065048
29.837967 101.280312 1.147588
31.778656 101.280312 1.457120
33.719345 101.280312 1.815211
35.660034 101.280312 1.558160
37.600723 101.280312 1.721433
39.541412 101.280312 1.692052
41.482101 101.280312 1.730097
43.422791 101.280312 1.483909
45.363480 101.280312 1.298706
47.304176 101.280312 1.279861
49.244865 101.280312 1.200058
51.185555 101.280312 1.224661
53.126244 101.280312 1.219484
55.066933 101.280312 1.081347
57.007622 101.280312 0.000000
58.948311 101.280312 0.000000
60.889008 101.280312 0.000000
62.829697 101.280312 0.000000
64.770386 101.280312 0.000000
66.711075 101.280312 1.031466
68.651764 101.280312 0.849271
70.592453 101.280312 0.710759
72.533142 101.280312 0.667754
74.473831 101.280312 0.780249
76.414520 101.280312 0.806723
78.355209 101.280312 0.754066
80.295898 101.280312 0.595310
82.236588 101.280312 0.739389
84.177277 101.280312 0.590161
86.117981 101.280312 0.733266
88.058670 101.280312 0.700618
89.999359 101.280312 0.719480
91.940048 101.280312 0.691603
93.880737 101.280312 0.659939
95.821426 101.280312 0.576761
97.762115 101.280312 0.568225
99.702805 101.280312 0.520951
101.643494 101.280312 0.564591
103.584183 101.280312 0.551313
105.524872 101.280312 0.670615
107.465561 101.280312 0.615685
109.406250 101.280312 0.590828
111.346939 101.280312 0.499367
113.287628 101.280312 0.578558
115.228333 101.280312 0.613517
117.169022 101.280312 0.572555
119.109711 101.280312 0.530815
121.050400 101.280312 0.493059
122.991089 101.280312 0.595027
124.931778 101.280312 0.700817
126.872467 101.280312 0.658420
128.813156 101.280312 0.671497
130.753845 101.280312 0.565874
132.694534 101.280312 0.622533
134.635223 101.280312 0.602480
136.575912 101.280312 0.614728
138.516602 101.280312 0.576920
140.457291 101.280312 0.000000
-55.552399 99.339622 5.766635
-53.611710 99.339622 4.174788
-51.671021 99.339622 1.680098
-49.730328 99.339622 1.068220
-47.789639 99.339622 0.854356
-45.848949 99.339622 0.933846
-43.908257 99.339622 0.875271
-41.967567 99.339622 0.837710
-40.026878 99.339622 0.890922
-38.086189 99.339622 0.000000
-36.145500 99.339622 0.000000
-34.204807 99.339622 0.000000
-32.264118 99.339622 0.000000
-30.323429 99.339622 0.000000
-28.382738 99.339622 0.000000
-26.442047 99.339622 0.000000
-24.501358 99.339622 0.000000
-22.560669 99.339622 0.000000
-20.619980 99.339622 0.000000
-18.679287 99.339622 0.000000
-16.738598 99.339622 0.000000
-14.797909 99.339622 0.000000
-12.857216 99.339622 0.444773
-10.916527 99.339622 0.481397
-8.975838 99.339622 0.570586
-7.035149 99.339622 0.751404
-5.094460 99.339622 0.830892
-3.153767 99.339622 0.993871
-1.213078 99.339622 0.963340
0.727612 99.339622 0.946216
2.668304 99.339622 1.096518
4.608994 99.339622 1.071796
6.549683 99.339622 1.187556
8.490372 99.339622 0.981413
10.431061 99.339622 1.160692
12.371750 99.339622 1.247929
14.312439 99.339622 1.253983
16.253136 99.339622 1.626876
18.193825 99.339622 1.807183
20.134514 99.339622 1.330112
22.075203 99.339622 1.444416
24.015892 99.339622 1.295161
25.956581 99.339622 1.202057
27.897270 99.339622 1.124560
29.837967 99.339622 1.006240
31.778656 99.339622 1.345066
33.719345 99.339622 2.559213
35.660034 99.339622 2.471819
37.600723 99.339622 1.729037
39.541412 99.339622 1.606358
41.482101 99.339622 1.394356
43.422791 99.339622 1.404654
45.363480 99.339622 1.438703
47.304176 99.339622 1.487835
49.244865 99.339622 1.383516
51.185555 99.339622 1.422985
53.126244 99.339622 1.513308
55.066933 99.339622 1.511791
57.007622 99.339622 3.504082
58.948311 99.339622 0.000000
60.889008 99.339622 0.000000
62.829697 99.339622 0.000000
64.770386 99.339622 0.000000
66.711075 99.339622 1.047758
68.651764 99.339622 0.851787
70.592453 99.339622 0.875386
72.533142 99.339622 0.829825
74.473831 99.339622 0.735101
76.414520 99.339622 0.784780
78.355209 99.339622 0.842136
80.295898 99.339622 0.692373
82.236588 99.339622 0.851507
84.177277 99.339622 0.633054
86.117981 99.339622 0.764562
88.058670 99.339622 0.716909
89.999359 99.339622 0.703736
91.940048 99.339622 0.689644
93.880737 99.339622 0.672845
95.821426 99.339622 0.523210
97.762115 99.339622 0.525488
99.702805 99.339622 0.497620
101.643494 99.339622 0.518521
103.584183 99.339622 0.543081
105.524872 99.339622 0.625258
107.465561 99.339622 0.586310
109.406250 99.339622 0.598408
111.346939 99.339622 0.500214
113.287628 99.339622 0.496790
115.228333 99.339622 0.556614
117.169022 99.339622 0.589012
119.109711 99.339622 0.521458
121.050400 99.339622 0.540164
122.991089 99.339622 0.458854
124.931778 99.339622 0.580790
126.872467 99.339622 0.590341
128.813156 99.339622 0.536383
130.753845 99.339622 0.497393
132.694534 99.339622 0.568128
134.635223 99.339622 0.522393
136.575912 99.339622 0.574614
138.516602 99.339622 0.538066
140.457291 99.339622 0.000000
-55.552399 97.398933 6.229073
-53.611710 97.398933 5.348781
-51.671021 97.398933 2.413927
-49.730328 97.398933 1.463372
-47.789639 97.398933 1.062523
-45.848949 97.398933 0.970046
-43.908257 97.398933 0.955655
-41.967567 97.398933 0.907662
-40.026878 97.398933 0.769186
-38.086189 97.398933 0.000000
-36.145500 97.398933 0.000000
-34.204807 97.398933 0.000000
-32.264118 97.398933 0.000000
-30.323429 97.398933 0.000000
-28.382738 97.398933 0.000000
-26.442047 97.398933 0.000000
-24.501358 97.398933 0.000000
-22.560669 97.398933 0.000000
-20.619980 97.398933 0.000000
-18.679287 97.398933 0.000000
-16.738598 97.398933 0.000000
-14.797909 97.398933 0.000000
-12.857216 97.398933 0.426943
-10.916527 97.398933 0.471154
-8.975838 97.398933 0.512265
-7.035149 97.398933 0.510902
-5.094460 97.398933 0.732601
-3.153767 97.398933 0.815298
-1.213078 97.398933 0.874096
0.727612 97.398933 0.954765
2.668304 97.398933 1.055249
4.608994 97.398933 1.089647
6.549683 97.398933 1.174777
8.490372 97.398933 1.211496
10.431061 97.398933 1.249356
12.371750 97.398933 1.368270
14.312439 97.398933 1.488693
16.253136 97.398933 1.652108
18.193825 97.398933 1.352767
20.134514 97.398933 1.306372
22.075203 97.398933 1.264849
24.015892 97.398933 1.252617
25.956581 97.398933 1.193496
27.897270 97.398933 0.978249
29.837967 97.398933 0.933222
31.778656 97.398933 1.143247
33.719345 97.398933 2.427713
35.660034 97.398933 2.528683
37.600723 97.398933 3.237093
39.541412 97.398933 1.538398
41.482101 97.398933 1.343440
43.422791 97.398933 1.583965
45.363480 97.398933 1.437557
47.304176 97.398933 1.354568
49.244865 97.398933 1.249122
51.185555 97.398933 1.406794
53.126244 97.398933 1.862218
55.066933 97.398933 1.591928
57.007622 97.398933 3.792753
58.948311 97.398933 0.000000
60.889008 97.398933 0.000000
62.829697 97.398933 0.000000
64.770386 97.398933 0.000000
66.711075 97.398933 0.835126
68.651764 97.398933 0.918639
70.592453 97.398933 1.109867
72.533142 97.398933 0.991176
74.473831 97.398933 0.768640
76.414520 97.398933 0.713492
78.355209 97.398933 0.829268
80.295898 97.398933 0.780852
82.236588 97.398933 0.839575
84.177277 97.398933 0.768938
86.117981 97.398933 0.719380
88.058670 97.398933 0.726532
89.999359 97.398933 0.699770
91.940048 97.398933 0.673368
93.880737 97.398933 0.693588
95.821426 97.398933 0.589703
97.762115 97.398933 0.569234
99.702805 97.398933 0.561191
101.643494 97.398933 0.518581
103.584183 97.398933 0.455067
105.524872 97.398933 0.544667
107.465561 97.398933 0.534348
109.406250 97.398933 0.470053
111.346939 97.398933 0.485800
113.287628 97.398933 0.424312
115.228333 97.398933 0.611251
117.169022 97.398933 0.488179
119.109711 97.398933 0.550985
121.050400 97.398933 0.545216
122.991089 97.398933 0.502886
124.931778 97.398933 0.567039
126.872467 97.398933 0.516936
128.813156 97.398933 0.527514
130.753845 97.398933 0.539022
132.694534 97.398933 0.520032
134.635223 97.398933 0.528629
136.575912 97.398933 0.449308
138.516602 97.398933 0.503316
140.457291 97.398933 0.000000
-55.552399 95.458237 6.613740
-53.611710 95.458237 4.595344
-51.671021 95.458237 3.212199
-49.730328 95.458237 1.096969
-47.789639 95.458237 0.994307
-45.848949 95.458237 0.904525
-43.908257 95.458237 0.807939
-41.967567 95.458237 0.787845
-40.026878 95.458237 0.750942
-38.086189 95.458237 0.000000
-36.145500 95.458237 0.000000
-34.204807 95.458237 0.000000
-32.264118 95.458237 0.000000
-30.323429 95.458237 0.000000
-28.382738 95.458237 0.000000
-26.442047 95.458237 0.000000
-24.501358 95.458237 0.000000
-22.560669 95.458237 0.000000
-20.619980 95.458237 0.000000
-18.679287 95.458237 0.000000
-16.738598 95.458237 0.000000
-14.797909 95.458237 0.332068
-12.857216 95.458237 0.388882
-10.916527 95.458237 0.432366
-8.975838 95.458237 0.457921
-7.035149 95.458237 0.600533
-5.094460 95.458237 0.755202
-3.153767 95.458237 0.867495
-1.213078 95.458237 0.933641
0.727612 95.458237 0.886002
2.668304 95.458237 1.148366
4.608994 95.458237 1.228297
6.549683 95.458237 1.275448
8.490372 95.458237 1.403837
10.431061 95.458237 1.478947
12.371750 95.458237 1.586855
14.312439 95.458237 1.510526
16.253136 95.458237 1.541893
18.193825 95.458237 1.433844
20.134514 95.458237 1.308792
22.075203 95.458237 1.217433
24.015892 95.458237 1.111654
25.956581 95.458237 1.127913
27.897270 95.458237 1.005821
29.837967 95.458237 0.979851
31.778656 95.458237 1.204874
33.719345 95.458237 1.395774
35.660034 95.458237 1.666556
37.600723 95.458237 2.844982
39.541412 95.458237 1.255794
41.482101 95.458237 1.290629
43.422791 95.458237 1.556786
45.363480 95.458237 1.430536
47.304176 95.458237 1.176372
49.244865 95.458237 1.059820
51.185555 95.458237 1.211389
53.126244 95.458237 1.350499
55.066933 95.458237 1.551183
57.007622 95.458237 3.888830
58.948311 95.458237 0.000000
60.889008 95.458237 0.000000
62.829697 95.458237 0.000000
64.770386 95.458237 0.000000
66.711075 95.458237 0.859635
68.651764 95.458237 0.868953
70.592453 95.458237 0.942419
72.533142 95.458237 0.847757
74.473831 95.458237 0.680651
76.414520 95.458237 0.798134
78.355209 95.458237 0.907114
80.295898 95.458237 0.767383
82.236588 95.458237 0.890639
84.177277 95.458237 0.883247
86.117981 95.458237 0.767912
88.058670 95.458237 0.630956
89.999359 95.458237 0.562219
91.940048 95.458237 0.642863
93.880737 95.458237 0.688951
95.821426 95.458237 0.583085
97.762115 95.458237 0.526204
99.702805 95.458237 0.559187
101.643494 95.458237 0.510035
103.584183 95.458237 0.423664
105.524872 95.458237 0.517814
107.465561 95.458237 0.469585
109.406250 95.458237 0.452321
111.346939 95.458237 0.505813
113.287628 95.458237 0.459290
115.228333 95.458237 0.487230
117.169022 95.458237 0.465870
119.109711 95.458237 0.480564
121.050400 95.458237 0.504409
122.991089 95.458237 0.507543
124.931778 95.458237 0.547973
126.872467 95.458237 0.496043
128.813156 95.458237 0.518507
130.753845 95.458237 0.455261
132.694534 95.458237 0.511563
134.635223 95.458237 0.532068
136.575912 95.458237 0.470390
138.516602 95.458237 0.521761
140.457291 95.458237 0.000000
-55.552399 93.517548 7.269280
-53.611710 93.517548 5.851202
-51.671021 93.517548 1.890075
-49.730328 93.517548 1.121696
-47.789639 93.517548 1.026848
-45.848949 93.517548 0.882696
-43.908257 93.517548 0.827582
-41.967567 93.517548 0.775552
-40.026878 93.517548 0.745189
-38.086189 93.517548 0.000000
-36.145500 93.517548 0.000000
-34.204807 93.517548 0.000000
-32.264118 93.517548 0.000000
-30.323429 93.517548 0.000000
-28.382738 93.517548 0.000000
-26.442047 93.517548 0.000000
-24.501358 93.517548 0.000000
-22.560669 93.517548 0.000000
-20.619980 93.517548 0.000000
-18.679287 93.517548 0.000000
-16.738598 93.517548 0.000000
-14.797909 93.517548 0.401853
-12.857216 93.517548 0.404958
-10.916527 93.517548 0.521902
-8.975838 93.517548 0.508864
-7.035149 93.517548 0.724372
-5.094460 93.517548 0.834774
-3.153767 93.517548 0.979959
-1.213078 93.517548 1.140027
0.727612 93.517548 1.203540
2.668304 93.517548 1.200715
4.608994 93.517548 1.333963
6.549683 93.517548 1.164977
8.490372 93.517548 1.298698
10.431061 93.517548 1.336228
12.371750 93.517548 1.440258
14.312439 93.517548 1.358010
16.253136 93.517548 1.375211
18.193825 93.517548 1.241646
20.134514 93.517548 1.185476
22.075203 93.517548 0.998330
24.015892 93.517548 1.105379
25.956581 93.517548 1.008099
27.897270 93.517548 1.048528
29.837967 93.517548 1.169114
31.778656 93.517548 1.130845
33.719345 93.517548 1.275826
35.660034 93.517548 1.304721
37.600723 93.517548 1.036090
39.541412 93.517548 1.102182
41.482101 93.517548 1.291624
43.422791 93.517548 1.162924
45.363480 93.517548 1.265877
47.304176 93.517548 1.041231
49.244865 93.517548 1.079402
51.185555 93.517548 0.982092
53.126244 93.517548 1.293704
55.066933 93.517548 2.287369
57.007622 93.517548 2.868263
58.948311 93.517548 0.000000
60.889008 93.517548 0.000000
62.829697 93.517548 0.000000
64.770386 93.517548 0.000000
66.711075 93.517548 0.816755
68.651764 93.517548 0.789789
70.592453 93.517548 0.673304
72.533142 93.517548 0.645603
74.473831 93.517548 0.711002
76.414520 93.517548 0.645799
78.355209 93.517548 0.855101
80.295898 93.517548 0.855683
82.236588 93.517548 0.780278
84.177277 93.517548 0.860325
86.117981 93.517548 0.778462
88.058670 93.517548 0.610921
89.999359 93.517548 0.559835
91.940048 93.517548 0.651503
93.880737 93.517548 0.609346
95.821426 93.517548 0.547850
97.762115 93.517548 0.470678
99.702805 93.517548 0.461348
101.643494 93.517548 0.484223
103.584183 93.517548 0.501478
105.524872 93.517548 0.596281
107.465561 93.517548 0.508276
109.406250 93.517548 0.424270
111.346939 93.517548 0.452922
113.287628 93.517548 0.525951
115.228333 93.517548 0.439854
117.169022 93.517548 0.495652
119.109711 93.517548 0.480600
121.050400 93.517548 0.518054
122.991089 93.517548 0.532160
124.931778 93.517548 0.551084
126.872467 93.517548 0.497413
128.813156 93.517548 0.506193
130.753845 93.517548 0.483922
132.694534 93.517548 0.551265
134.635223 93.517548 0.505950
136.575912 93.517548 0.476607
138.516602 93.517548 0.485965
140.457291 93.517548 0.000000
-55.552399 91.576859 7.113964
-53.611710 91.576859 5.124887
-51.671021 91.576859 2.919045
-49.730328 91.576859 0.851678
-47.789639 91.576859 0.844880
-45.848949 91.576859 0.783478
-43.908257 91.576859 0.814810
-41.967567 91.576859 0.809677
-40.026878 91.576859 0.853614
-38.086189 91.576859 0.000000
-36.145500 91.576859 0.000000
-34.204807 91.576859 0.000000
-32.264118 91.576859 0.000000
-30.323429 91.576859 0.000000
-28.382738 91.576859 0.000000
-26.442047 91.576859 0.000000
-24.501358 91.576859 0.000000
-22.560669 91.576859 0.000000
-20.619980 91.576859 0.000000
-18.679287 91.576859 0.000000
-16.738598 91.576859 0.000000
-14.797909 91.576859 0.456765
-12.857216 91.576859 0.437598
-10.916527 91.576859 0.615291
-8.975838 91.576859 0.644409
-7.035149 91.576859 0.660344
-5.094460 91.576859 0.669507
-3.153767 91.576859 0.898092
-1.213078 91.576859 1.237269
0.727612 91.576859 1.070637
2.668304 91.576859 0.985044
4.608994 91.576859 1.007596
6.549683 91.576859 0.926387
8.490372 91.576859 0.936342
10.431061 91.576859 0.948703
12.371750 91.576859 1.025362
14.312439 91.576859 1.206008
16.253136 91.576859 1.325555
18.193825 91.576859 1.192061
20.134514 91.576859 1.003105
22.075203 91.576859 0.890232
24.015892 91.576859 1.006483
25.956581 91.576859 0.918643
27.897270 91.576859 0.918435
29.837967 91.576859 0.871797
31.778656 91.576859 0.940839
33.719345 91.576859 0.996230
35.660034 91.576859 0.968727
37.600723 91.576859 0.904895
39.541412 91.576859 0.952251
41.482101 91.576859 0.903771
43.422791 91.576859 0.959589
45.363480 91.576859 0.942562
47.304176 91.576859 0.933569
49.244865 91.576859 0.945452
51.185555 91.576859 1.008233
53.126244 91.576859 1.132632
55.066933 91.576859 1.369426
57.007622 91.576859 1.930282
58.948311 91.576859 0.000000
60.889008 91.576859 0.000000
62.829697 91.576859 0.000000
64.770386 91.576859 0.000000
66.711075 91.576859 0.681550
68.651764 91.576859 0.741940
70.592453 91.576859 0.587240
72.533142 91.576859 0.645256
74.473831 91.576859 0.860566
76.414520 91.576859 0.623552
78.355209 91.576859 0.722196
80.295898 91.576859 0.795111
82.236588 91.576859 0.791595
84.177277 91.576859 0.623669
86.117981 91.576859 0.669518
88.058670 91.576859 0.627468
89.999359 91.576859 0.599894
91.940048 91.576859 0.648902
93.880737 91.576859 0.606779
95.821426 91.576859 0.589783
97.762115 91.576859 0.481984
99.702805 91.576859 0.481450
101.643494 91.576859 0.513733
103.584183 91.576859 0.518597
105.524872 91.576859 0.580123
107.465561 91.576859 0.529781
109.406250 91.576859 0.424551
111.346939 91.576859 0.557001
113.287628 91.576859 0.558173
115.228333 91.576859 0.474898
117.169022 91.576859 0.468826
119.109711 91.576859 0.532359
121.050400 91.576859 0.468467
122.991089 91.576859 0.530721
124.931778 91.576859 0.484130
126.872467 91.576859 0.526735
128.813156 91.576859 0.555808
130.753845 91.576859 0.508219
132.694534 91.576859 0.616106
134.635223 91.576859 0.633810
136.575912 91.576859 0.546465
138.516602 91.576859 0.532987
140.457291 91.576859 0.000000
-55.552399 89.636169 4.447120
-53.611710 89.636169 4.196524
-51.671021 89.636169 1.310934
-49.730328 89.636169 0.887100
-47.789639 89.636169 0.792616
-45.848949 89.636169 0.673050
-43.908257 89.636169 0.759735
-41.967567 89.636169 0.800028
-40.026878 89.636169 0.771665
-38.086189 89.636169 0.000000
-36.145500 89.636169 0.000000
-34.204807 89.636169 0.000000
-32.264118 89.636169 0.000000
-30.323429 89.636169 0.000000
-28.382738 89.636169 0.000000
-26.442047 89.636169 0.000000
-24.501358 89.636169 0.000000
-22.560669 89.636169 0.000000
-20.619980 89.636169 0.000000
-18.679287 89.636169 0.000000
-16.738598 89.636169 0.000000
-14.797909 89.636169 0.404651
-12.857216 89.636169 0.475911
-10.916527 89.636169 0.542891
-8.975838 89.636169 0.567657
-7.035149 89.636169 0.549306
-5.094460 89.636169 0.547064
-3.153767 89.636169 0.650057
-1.213078 89.636169 0.788013
0.727612 89.636169 0.703494
2.668304 89.636169 0.598424
4.608994 89.636169 0.694935
6.549683 89.636169 0.771841
8.490372 89.636169 0.646468
10.431061 89.636169 0.741697
12.371750 89.636169 0.728409
14.312439 89.636169 0.778118
16.253136 89.636169 0.971153
18.193825 89.636169 0.894339
20.134514 89.636169 0.945707
22.075203 89.636169 0.818235
24.015892 89.636169 0.801400
25.956581 89.636169 0.665511
27.897270 89.636169 0.756279
29.837967 89.636169 0.709373
31.778656 89.636169 0.737995
33.719345 89.636169 0.755313
35.660034 89.636169 0.811149
37.600723 89.636169 0.830984
39.541412 89.636169 0.791438
41.482101 89.636169 0.746069
43.422791 89.636169 0.859152
45.363480 89.636169 0.823118
47.304176 89.636169 0.664787
49.244865 89.636169 0.796226
51.185555 89.636169 0.951596
53.126244 89.636169 1.138648
55.066933 89.636169 1.262575
57.007622 89.636169 2.118367
58.948311 89.636169 0.000000
60.889008 89.636169 0.000000
62.829697 89.636169 0.000000
64.770386 89.636169 0.000000
66.711075 89.636169 0.672174
68.651764 89.636169 0.616307
70.592453 89.636169 0.500166
72.533142 89.636169 0.589162
74.473831 89.636169 1.029308
76.414520 89.636169 0.992182
78.355209 89.636169 0.906948
80.295898 89.636169 0.833522
82.236588 89.636169 0.753772
84.177277 89.636169 0.489954
86.117981 89.636169 0.603121
88.058670 89.636169 0.575030
89.999359 89.636169 0.493433
91.940048 89.636169 0.513922
93.880737 89.636169 0.589037
95.821426 89.636169 0.516538
97.762115 89.636169 0.460372
99.702805 89.636169 0.505538
101.643494 89.636169 0.550174
103.584183 89.636169 0.532445
105.524872 89.636169 0.628690
107.465561 89.636169 0.510418
109.406250 89.636169 0.456377
111.346939 89.636169 0.535307
113.287628 89.636169 0.589076
115.228333 89.636169 0.523135
117.169022 89.636169 0.490210
119.109711 89.636169 0.500100
121.050400 89.636169 0.478919
122.991089 89.636169 0.481804
124.931778 89.636169 0.543027
126.872467 89.636169 0.558222
128.813156 89.636169 0.548910
130.753845 89.636169 0.531557
132.694534 89.636169 0.606666
134.635223 89.636169 0.648831
136.575912 89.636169 0.599676
138.516602 89.636169 0.552621
140.457291 89.636169 0.000000
-55.552399 87.695480 3.826031
-53.611710 87.695480 1.970734
-51.671021 87.695480 1.116373
-49.730328 87.695480 0.801589
-47.789639 87.695480 0.781800
-45.848949 87.695480 0.746690
-43.908257 87.695480 0.700430
-41.967567 87.695480 0.730136
-40.026878 87.695480 0.652503
-38.086189 87.695480 0.000000
-36.145500 87.695480 0.000000
-34.204807 87.695480 0.000000
-32.264118 87.695480 0.000000
-30.323429 87.695480 0.000000
-28.382738 87.695480 0.000000
-26.442047 87.695480 0.000000
-24.501358 87.695480 0.000000
-22.560669 87.695480 0.000000
-20.619980 87.695480 0.000000
-18.679287 87.695480 0.000000
-16.738598 87.695480 0.000000
-14.797909 87.695480 0.422499
-12.857216 87.695480 0.424902
-10.916527 87.695480 0.472333
-8.975838 87.695480 0.573053
-7.035149 87.695480 0.593171
-5.094460 87.695480 0.563194
-3.153767 87.695480 0.677948
-1.213078 87.695480 0.740959
0.727612 87.695480 0.553145
2.668304 87.695480 0.465135
4.608994 87.695480 0.527166
6.549683 87.695480 0.593080
8.490372 87.695480 0.549695
10.431061 87.695480 0.587026
12.371750 87.695480 0.703663
14.312439 87.695480 0.636887
16.253136 87.695480 0.729246
18.193825 87.695480 0.676503
20.134514 87.695480 0.744804
22.075203 87.695480 0.592040
24.015892 87.695480 0.581889
25.956581 87.695480 0.606219
27.897270 87.695480 0.656965
29.837967 87.695480 0.565431
31.778656 87.695480 0.528231
33.719345 87.695480 0.555340
35.660034 87.695480 0.617171
37.600723 87.695480 0.619067
39.541412 87.695480 0.581369
41.482101 87.695480 0.604222
43.422791 87.695480 0.646420
45.363480 87.695480 0.684376
47.304176 87.695480 0.560286
49.244865 87.695480 0.672078
51.185555 87.695480 0.768932
53.126244 87.695480 0.959113
55.066933 87.695480 0.914289
57.007622 87.695480 0.974279
58.948311 87.695480 0.000000
60.889008 87.695480 0.000000
62.829697 87.695480 0.000000
64.770386 87.695480 0.000000
66.711075 87.695480 0.663989
68.651764 87.695480 0.520642
70.592453 87.695480 0.463618
72.533142 87.695480 0.571967
74.473831 87.695480 0.761289
76.414520 87.695480 0.995290
78.355209 87.695480 0.974850
80.295898 87.695480 0.903609
82.236588 87.695480 0.694273
84.177277 87.695480 0.529041
86.117981 87.695480 0.636285
88.058670 87.695480 0.508214
89.999359 87.695480 0.509478
91.940048 87.695480 0.552370
93.880737 87.695480 0.550003
95.821426 87.695480 0.534303
97.762115 87.695480 0.453365
99.702805 87.695480 0.492723
101.643494 87.695480 0.554303
103.584183 87.695480 0.600328
105.524872 87.695480 0.673531
107.465561 87.695480 0.518183
109.406250 87.695480 0.501515
111.346939 87.695480 0.473542
113.287628 87.695480 0.468420
115.228333 87.695480 0.527038
117.169022 87.695480 0.525772
119.109711 87.695480 0.583737
121.050400 87.695480 0.532797
122.991089 87.695480 0.510978
124.931778 87.695480 0.529527
126.872467 87.695480 0.561466
128.813156 87.695480 0.542834
130.753845 87.695480 0.584239
132.694534 87.695480 0.614676
134.635223 87.695480 0.620392
136.575912 87.695480 0.610436
138.516602 87.695480 0.579448
140.457291 87.695480 0.000000
-55.552399 85.754791 2.403884
-53.611710 85.754791 1.234654
-51.671021 85.754791 0.961525
-49.730328 85.754791 0.853154
-47.789639 85.754791 0.763775
-45.848949 85.754791 0.764303
-43.908257 85.754791 0.697405
-41.967567 85.754791 0.626141
-40.026878 85.754791 0.600692
-38.086189 85.754791 0.000000
-36.145500 85.754791 0.000000
-34.204807 85.754791 0.000000
-32.264118 85.754791 0.000000
-30.323429 85.754791 0.000000
-28.382738 85.754791 0.000000
-26.442047 85.754791 0.000000
-24.501358 85.754791 0.000000
-22.560669 85.754791 0.000000
-20.619980 85.754791 0.000000
-18.679287 85.754791 0.000000
-16.738598 85.754791 0.000000
-14.797909 85.754791 0.385405
-12.857216 85.754791 0.359051
-10.916527 85.754791 0.406238
-8.975838 85.754791 0.446100
-7.035149 85.754791 0.524609
-5.094460 85.754791 0.626516
-3.153767 85.754791 0.608788
-1.213078 85.754791 0.639561
0.727612 85.754791 0.501044
2.668304 85.754791 0.378965
4.608994 85.754791 0.460733
6.549683 85.754791 0.567440
8.490372 85.754791 0.493594
10.431061 85.754791 0.468818
12.371750 85.754791 0.523123
14.312439 85.754791 0.633147
16.253136 85.754791 0.562708
18.193825 85.754791 0.702413
20.134514 85.754791 0.661877
22.075203 85.754791 0.538915
24.015892 85.754791 0.543891
25.956581 85.754791 0.450810
27.897270 85.754791 0.515933
29.837967 85.754791 0.415248
31.778656 85.754791 0.456712
33.719345 85.754791 0.478600
35.660034 85.754791 0.535358
37.600723 85.754791 0.558756
39.541412 85.754791 0.452831
41.482101 85.754791 0.532691
43.422791 85.754791 0.503835
45.363480 85.754791 0.558575
47.304176 85.754791 0.552438
49.244865 85.754791 0.517670
51.185555 85.754791 0.540626
53.126244 85.754791 0.733278
55.066933 85.754791 0.769846
57.007622 85.754791 1.025401
58.948311 85.754791 0.000000
60.889008 85.754791 0.000000
62.829697 85.754791 0.000000
64.770386 85.754791 0.000000
66.711075 85.754791 0.650754
68.651764 85.754791 0.519338
70.592453 85.754791 0.438946
72.533142 85.754791 0.460212
74.473831 85.754791 0.464813
76.414520 85.754791 0.645894
78.355209 85.754791 0.763080
80.295898 85.754791 0.801708
82.236588 85.754791 0.624118
84.177277 85.754791 0.581765
86.117981 85.754791 0.705830
88.058670 85.754791 0.485496
89.999359 85.754791 0.536170
91.940048 85.754791 0.606886
93.880737 85.754791 0.620476
95.821426 85.754791 0.634354
97.762115 85.754791 0.469933
99.702805 85.754791 0.473910
101.643494 85.754791 0.529079
103.584183 85.754791 0.668007
105.524872 85.754791 0.603571
107.465561 85.754791 0.513690
109.406250 85.754791 0.506373
111.346939 85.754791 0.541694
113.287628 85.754791 0.524628
115.228333 85.754791 0.538020
117.169022 85.754791 0.513895
119.109711 85.754791 0.581082
121.050400 85.754791 0.544191