TITLE = "B00053"
VARIABLES = "position", "position(2)", "Vx", "Vy"
ZONE T="Frame 0", I=102, J=78
-55.552357 103.220658 0.000000 0.000000
-53.611669 103.220658 9.178857 -0.356345
-51.670981 103.220658 8.341084 0.050338
-49.730293 103.220658 7.797738 0.296705
-47.789605 103.220658 9.999326 1.050615
-45.848917 103.220658 11.477603 0.083015
-43.908229 103.220658 11.240450 0.204018
-41.967541 103.220658 10.148211 0.377694
-40.026853 103.220658 9.335511 0.247488
-38.086165 103.220658 0.000000 0.000000
-36.145477 103.220658 0.000000 0.000000
-34.204789 103.220658 0.000000 0.000000
-32.264101 103.220658 0.000000 0.000000
-30.323413 103.220658 0.000000 0.000000
-28.382725 103.220658 0.000000 0.000000
-26.442037 103.220658 0.000000 0.000000
-24.501349 103.220658 0.000000 0.000000
-22.560661 103.220658 0.000000 0.000000
-20.619973 103.220658 0.000000 0.000000
-18.679285 103.220658 0.000000 0.000000
-16.738597 103.220658 0.000000 0.000000
-14.797909 103.220658 0.000000 0.000000
-12.857221 103.220658 9.822227 0.850593
-10.916533 103.220658 9.664612 0.896293
-8.975845 103.220658 9.620679 1.103094
-7.035157 103.220658 9.602331 1.209838
-5.094469 103.220658 10.062955 0.525439
-3.153781 103.220658 10.285620 0.657226
-1.213093 103.220658 10.250200 0.948077
0.727595 103.220658 9.876620 0.395533
2.668283 103.220658 9.436697 -0.414844
4.608971 103.220658 11.205495 2.947835
6.549659 103.220658 10.934373 1.176261
8.490347 103.220658 10.186790 0.686400
10.431035 103.220658 10.259656 1.027347
12.371723 103.220658 10.239572 2.020308
14.312411 103.220658 9.135500 2.320027
16.253099 103.220658 8.836617 1.407521
18.193787 103.220658 10.223536 1.290493
20.134475 103.220658 10.555195 1.960371
22.075163 103.220658 10.407532 1.205204
24.015851 103.220658 10.655513 0.856745
25.956539 103.220658 11.079806 1.057446
27.897227 103.220658 11.790807 0.330146
29.837915 103.220658 11.643961 0.846228
31.778603 103.220658 10.650436 1.197502
33.719291 103.220658 10.194186 2.048263
35.659979 103.220658 10.378801 2.190186
37.600667 103.220658 9.546854 1.385995
39.541355 103.220658 0.000000 0.000000
41.482043 103.220658 9.307268 1.483541
43.422731 103.220658 9.677045 2.045329
45.363419 103.220658 9.944446 2.260284
47.304107 103.220658 9.485467 2.322999
49.244796 103.220658 8.459540 0.918450
51.185484 103.220658 9.857428 -0.074658
53.126172 103.220658 10.378524 -0.910373
55.066860 103.220658 10.252514 -0.371499
57.007548 103.220658 0.000000 0.000000
58.948236 103.220658 0.000000 0.000000
60.888924 103.220658 0.000000 0.000000
62.829612 103.220658 0.000000 0.000000
64.770300 103.220658 0.000000 0.000000
66.710988 103.220658 12.406511 1.817598
68.651676 103.220658 12.213936 1.686015
70.592364 103.220658 11.841535 0.962835
72.533052 103.220658 10.990384 1.009618
74.473740 103.220658 10.177666 0.271737
76.414428 103.220658 10.099199 -0.919645
78.355116 103.220658 10.689066 -0.781751
80.295804 103.220658 10.721238 0.160494
82.236492 103.220658 10.956466 -0.202835
84.177180 103.220658 10.708769 -0.122795
86.117868 103.220658 10.380529 0.142467
88.058556 103.220658 10.654137 -0.338592
89.999244 103.220658 11.037587 -0.423153
91.939932 103.220658 11.155863 -0.262921
93.880620 103.220658 10.796329 -0.080938
95.821308 103.220658 10.527594 0.372628
97.761996 103.220658 10.129214 0.455102
99.702684 103.220658 10.058228 0.341681
101.643372 103.220658 10.567551 0.299153
103.584060 103.220658 10.973076 0.015269
105.524748 103.220658 10.619866 -0.399381
107.465436 103.220658 10.487077 -0.232247
109.406124 103.220658 10.603652 -0.258306
111.346812 103.220658 10.637998 0.056925
113.287500 103.220658 10.722507 0.099918
115.228188 103.220658 10.459615 0.151641
117.168876 103.220658 10.475782 0.382528
119.109564 103.220658 10.572945 -0.235114
121.050252 103.220658 10.706143 -1.725670
122.990940 103.220658 11.201415 0.107671
124.931628 103.220658 10.747535 1.009686
126.872316 103.220658 10.861107 -1.019218
128.813004 103.220658 9.998161 -0.392305
130.753692 103.220658 10.046474 0.268714
132.694380 103.220658 9.911630 0.013756
134.635068 103.220658 9.905370 -0.483598
136.575756 103.220658 10.174813 -0.387204
138.516444 103.220658 10.537940 0.452131
140.457132 103.220658 0.000000 0.000000
-55.552357 101.279970 9.046552 0.670484
-53.611669 101.279970 8.453394 -0.201384
-51.670981 101.279970 8.342280 0.388531
-49.730293 101.279970 9.290284 0.701947
-47.789605 101.279970 9.614007 0.857487
-45.848917 101.279970 9.995237 0.958563
-43.908229 101.279970 10.038085 0.471625
-41.967541 101.279970 10.065959 1.936164
-40.026853 101.279970 10.093632 1.089561
-38.086165 101.279970 0.000000 0.000000
-36.145477 101.279970 0.000000 0.000000
-34.204789 101.279970 0.000000 0.000000
-32.264101 101.279970 0.000000 0.000000
-30.323413 101.279970 0.000000 0.000000
-28.382725 101.279970 0.000000 0.000000
-26.442037 101.279970 0.000000 0.000000
-24.501349 101.279970 0.000000 0.000000
-22.560661 101.279970 0.000000 0.000000
-20.619973 101.279970 0.000000 0.000000
-18.679285 101.279970 0.000000 0.000000
-16.738597 101.279970 0.000000 0.000000
-14.797909 101.279970 9.634197 0.848639
-12.857221 101.279970 9.786392 0.882604
-10.916533 101.279970 9.703347 0.916232
-8.975845 101.279970 9.116576 0.983707
-7.035157 101.279970 9.265059 0.751486
-5.094469 101.279970 9.786987 0.898779
-3.153781 101.279970 10.275813 0.917785
-1.213093 101.279970 10.436969 0.855602
0.727595 101.279970 10.013508 0.838873
2.668283 101.279970 10.225236 0.170852
4.608971 101.279970 10.382189 -0.852436
6.549659 101.279970 9.146753 1.704426
8.490347 101.279970 9.696611 1.176835
10.431035 101.279970 10.487888 1.438732
12.371723 101.279970 10.707026 1.630533
14.312411 101.279970 9.400493 1.850110
16.253099 101.279970 9.119765 1.282979
18.193787 101.279970 9.990985 0.948268
20.134475 101.279970 9.915367 1.175331
22.075163 101.279970 9.274879 0.853258
24.015851 101.279970 9.512589 1.702981
25.956539 101.279970 9.595005 1.920860
27.897227 101.279970 11.507438 0.748631
29.837915 101.279970 11.289511 1.339889
31.778603 101.279970 10.203904 1.582018
33.719291 101.279970 0.000000 0.000000
35.659979 101.279970 10.611950 1.829611
37.600667 101.279970 9.819468 1.454740
39.541355 101.279970 9.727413 1.854933
41.482043 101.279970 9.665512 2.223525
43.422731 101.279970 9.385375 2.496016
45.363419 101.279970 9.955467 1.984710
47.304107 101.279970 9.706358 0.620893
49.244796 101.279970 9.184869 0.362145
51.185484 101.279970 10.491581 -0.418086
53.126172 101.279970 11.033747 1.032770
55.066860 101.279970 10.364206 0.533524
57.007548 101.279970 9.856050 1.143928
58.948236 101.279970 0.000000 0.000000
60.888924 101.279970 0.000000 0.000000
62.829612 101.279970 0.000000 0.000000
64.770300 101.279970 0.000000 0.000000
66.710988 101.279970 12.323895 1.198830
68.651676 101.279970 10.843328 -0.455435
70.592364 101.279970 11.331049 0.495597
72.533052 101.279970 10.998401 0.689106
74.473740 101.279970 9.919433 -0.218635
76.414428 101.279970 9.966364 -0.788193
78.355116 101.279970 10.570614 0.004909
80.295804 101.279970 10.544352 0.343416
82.236492 101.279970 10.720000 -0.203852
84.177180 101.279970 10.468598 0.032691
86.117868 101.279970 10.391047 0.160628
88.058556 101.279970 10.539368 -0.325752
89.999244 101.279970 10.532014 -0.469069
91.939932 101.279970 10.979160 -0.242744
93.880620 101.279970 10.646109 0.187751
95.821308 101.279970 10.643157 0.322243
97.761996 101.279970 10.353136 0.095218
99.702684 101.279970 10.227889 -0.062037
101.643372 101.279970 10.700014 -0.105578
103.584060 101.279970 10.846640 -0.479578
105.524748 101.279970 10.401000 -0.529693
107.465436 101.279970 10.457039 -0.256401
109.406124 101.279970 10.378331 -0.359331
111.346812 101.279970 10.474605 -0.290214
113.287500 101.279970 10.566661 -0.271498
115.228188 101.279970 10.534840 -0.224017
117.168876 101.279970 10.600874 0.044800
119.109564 101.279970 10.299146 -0.140336
121.050252 101.279970 10.341045 -0.370407
122.990940 101.279970 10.974632 -0.029876
124.931628 101.279970 11.350504 -0.026553
126.872316 101.279970 9.804216 -0.336510
128.813004 101.279970 10.081609 -0.183595
130.753692 101.279970 10.201301 -0.062384
132.694380 101.279970 9.950540 -0.364208
134.635068 101.279970 10.201222 -0.406776
136.575756 101.279970 10.458383 -0.269033
138.516444 101.279970 10.624587 -0.054251
140.457132 101.279970 0.000000 0.000000
-55.552357 99.339282 7.376205 -0.464200
-53.611669 99.339282 7.724391 -0.286966
-51.670981 99.339282 0.000000 0.000000
-49.730293 99.339282 9.322005 1.122252
-47.789605 99.339282 9.312253 0.989799
-45.848917 99.339282 9.006597 1.386598
-43.908229 99.339282 8.976558 2.049159
-41.967541 99.339282 9.114652 2.243212
-40.026853 99.339282 10.013393 2.514372
-38.086165 99.339282 0.000000 0.000000
-36.145477 99.339282 0.000000 0.000000
-34.204789 99.339282 0.000000 0.000000
-32.264101 99.339282 0.000000 0.000000
-30.323413 99.339282 0.000000 0.000000
-28.382725 99.339282 0.000000 0.000000
-26.442037 99.339282 0.000000 0.000000
-24.501349 99.339282 0.000000 0.000000
-22.560661 99.339282 0.000000 0.000000
-20.619973 99.339282 0.000000 0.000000
-18.679285 99.339282 0.000000 0.000000
-16.738597 99.339282 0.000000 0.000000
-14.797909 99.339282 9.271229 0.684974
-12.857221 99.339282 9.593880 0.735650
-10.916533 99.339282 9.979992 0.915768
-8.975845 99.339282 9.302793 0.710734
-7.035157 99.339282 9.210041 1.001788
-5.094469 99.339282 9.452377 0.964164
-3.153781 99.339282 9.757213 0.692878
-1.213093 99.339282 10.178162 0.872765
0.727595 99.339282 10.172714 1.261112
2.668283 99.339282 10.419343 1.017097
4.608971 99.339282 10.822325 0.448755
6.549659 99.339282 10.276610 1.054802
8.490347 99.339282 10.563859 2.196193
10.431035 99.339282 11.312618 1.124358
12.371723 99.339282 10.903576 1.294073
14.312411 99.339282 10.190395 0.930065
16.253099 99.339282 0.000000 0.000000
18.193787 99.339282 9.406285 1.167638
20.134475 99.339282 9.056290 0.621632
22.075163 99.339282 0.000000 0.000000
24.015851 99.339282 8.228377 1.790173
25.956539 99.339282 8.543712 2.405926
27.897227 99.339282 11.251004 0.338143
29.837915 99.339282 9.831877 0.913723
31.778603 99.339282 0.000000 0.000000
33.719291 99.339282 0.000000 0.000000
35.659979 99.339282 0.000000 0.000000
37.600667 99.339282 10.251543 1.392939
39.541355 99.339282 9.560875 2.046617
41.482043 99.339282 9.615914 2.218938
43.422731 99.339282 9.453183 2.414997
45.363419 99.339282 10.006054 1.466955
47.304107 99.339282 10.245863 0.774680
49.244796 99.339282 10.320938 -2.210766
51.185484 99.339282 10.261261 -1.612267
53.126172 99.339282 10.859303 -2.006090
55.066860 99.339282 9.908864 2.591525
57.007548 99.339282 9.585889 3.543246
58.948236 99.339282 0.000000 0.000000
60.888924 99.339282 0.000000 0.000000
62.829612 99.339282 0.000000 0.000000
64.770300 99.339282 0.000000 0.000000
66.710988 99.339282 10.858699 -1.453606
68.651676 99.339282 11.002048 -0.525415
70.592364 99.339282 11.149923 0.084001
72.533052 99.339282 10.774154 0.286165
74.473740 99.339282 9.881282 -0.450504
76.414428 99.339282 10.181756 -0.125661
78.355116 99.339282 10.343456 0.703782
80.295804 99.339282 10.354390 0.553647
82.236492 99.339282 10.448675 0.101372
84.177180 99.339282 10.479757 0.066115
86.117868 99.339282 10.707720 0.102259
88.058556 99.339282 10.814095 -0.598490
89.999244 99.339282 10.780812 -0.543896
91.939932 99.339282 10.747586 -0.336579
93.880620 99.339282 10.497273 -0.301844
95.821308 99.339282 10.382486 -0.064447
97.761996 99.339282 10.500173 -0.562854
99.702684 99.339282 10.524672 -0.788428
101.643372 99.339282 10.853371 -0.563285
103.584060 99.339282 10.354205 -0.213218
105.524748 99.339282 10.043903 0.391462
107.465436 99.339282 10.276493 0.021875
109.406124 99.339282 11.022823 -0.489158
111.346812 99.339282 10.505352 -0.336744
113.287500 99.339282 10.223120 -0.256653
115.228188 99.339282 10.349738 -0.437154
117.168876 99.339282 10.331305 -0.379682
119.109564 99.339282 10.106144 -0.268254
121.050252 99.339282 9.951511 -0.212752
122.990940 99.339282 10.315050 -0.149378
124.931628 99.339282 10.648589 -0.537941
126.872316 99.339282 9.982384 -0.207510
128.813004 99.339282 10.241575 0.007801
130.753692 99.339282 10.184164 -0.047817
132.694380 99.339282 9.897772 -0.122072
134.635068 99.339282 10.366979 -0.508159
136.575756 99.339282 10.542221 -0.420765
138.516444 99.339282 10.778770 -0.372370
140.457132 99.339282 0.000000 0.000000
-55.552357 97.398594 8.542958 -0.782485
-53.611669 97.398594 8.083647 0.409440
-51.670981 97.398594 0.000000 0.000000
-49.730293 97.398594 8.156767 0.456977
-47.789605 97.398594 8.538236 0.836650
-45.848917 97.398594 8.913502 1.078063
-43.908229 97.398594 9.014499 1.486050
-41.967541 97.398594 8.934772 1.879453
-40.026853 97.398594 9.125619 1.549602
-38.086165 97.398594 0.000000 0.000000
-36.145477 97.398594 0.000000 0.000000
-34.204789 97.398594 0.000000 0.000000
-32.264101 97.398594 0.000000 0.000000
-30.323413 97.398594 0.000000 0.000000
-28.382725 97.398594 0.000000 0.000000
-26.442037 97.398594 0.000000 0.000000
-24.501349 97.398594 0.000000 0.000000
-22.560661 97.398594 0.000000 0.000000
-20.619973 97.398594 0.000000 0.000000
-18.679285 97.398594 0.000000 0.000000
-16.738597 97.398594 0.000000 0.000000
-14.797909 97.398594 9.405326 0.844861
-12.857221 97.398594 9.530270 0.854091
-10.916533 97.398594 9.862844 0.795776
-8.975845 97.398594 9.723625 0.719193
-7.035157 97.398594 9.203098 0.912950
-5.094469 97.398594 9.522377 0.686914
-3.153781 97.398594 9.942214 0.642605
-1.213093 97.398594 10.276932 0.970053
0.727595 97.398594 10.383608 1.567644
2.668283 97.398594 10.605811 1.607471
4.608971 97.398594 11.244953 0.721190
6.549659 97.398594 10.835739 0.696834
8.490347 97.398594 9.669054 2.379658
10.431035 97.398594 9.402817 2.459145
12.371723 97.398594 10.057098 1.599542
14.312411 97.398594 9.457712 1.479534
16.253099 97.398594 9.273376 1.653378
18.193787 97.398594 9.456532 1.764800
20.134475 97.398594 10.101059 1.148665
22.075163 97.398594 11.281764 0.125253
24.015851 97.398594 10.137191 2.885447
25.956539 97.398594 9.758215 3.359605
27.897227 97.398594 10.458415 1.180490
29.837915 97.398594 10.144267 1.234945
31.778603 97.398594 9.660311 1.203081
33.719291 97.398594 9.436444 1.482551
35.659979 97.398594 9.840375 1.526809
37.600667 97.398594 10.375916 1.460218
39.541355 97.398594 9.842617 1.365490
41.482043 97.398594 9.716083 1.175316
43.422731 97.398594 9.584682 1.543216
45.363419 97.398594 9.371122 1.914191
47.304107 97.398594 0.000000 0.000000
49.244796 97.398594 0.000000 0.000000
51.185484 97.398594 10.186013 -1.605515
53.126172 97.398594 11.321177 0.572295
55.066860 97.398594 9.169500 3.372280
57.007548 97.398594 9.387622 3.630588
58.948236 97.398594 0.000000 0.000000
60.888924 97.398594 0.000000 0.000000
62.829612 97.398594 0.000000 0.000000
64.770300 97.398594 0.000000 0.000000
66.710988 97.398594 10.401810 -0.824318
68.651676 97.398594 10.332375 -0.634760
70.592364 97.398594 10.875422 0.023254
72.533052 97.398594 10.632330 -0.005634
74.473740 97.398594 10.517323 -0.239760
76.414428 97.398594 10.754464 0.260516
78.355116 97.398594 10.964597 0.727184
80.295804 97.398594 10.873098 0.562513
82.236492 97.398594 10.451814 -0.030876
84.177180 97.398594 10.624723 -0.277969
86.117868 97.398594 10.827999 -0.507473
88.058556 97.398594 10.860834 -0.928703
89.999244 97.398594 10.819327 -0.441343
91.939932 97.398594 10.522835 -0.240446
93.880620 97.398594 10.537189 -0.048816
95.821308 97.398594 10.563003 -0.025686
97.761996 97.398594 11.328336 0.503751
99.702684 97.398594 10.566081 -0.681733
101.643372 97.398594 10.549646 -0.221365
103.584060 97.398594 10.287333 -0.082206
105.524748 97.398594 10.209706 0.027581
107.465436 97.398594 9.935016 0.173830
109.406124 97.398594 10.671478 -0.081478
111.346812 97.398594 10.293946 -0.278978
113.287500 97.398594 10.030976 -0.262535
115.228188 97.398594 10.321272 -0.225426
117.168876 97.398594 10.217632 -0.239343
119.109564 97.398594 10.084849 -0.267142
121.050252 97.398594 9.917697 -0.282923
122.990940 97.398594 9.875041 -0.333490
124.931628 97.398594 10.059137 -0.288078
126.872316 97.398594 10.123967 -0.118882
128.813004 97.398594 10.421287 -0.342816
130.753692 97.398594 10.231753 -0.213195
132.694380 97.398594 9.979822 -0.042386
134.635068 97.398594 10.312641 -0.420757
136.575756 97.398594 10.610072 -0.403369
138.516444 97.398594 10.851789 -0.216913
140.457132 97.398594 0.000000 0.000000
-55.552357 95.457906 10.629027 3.137726
-53.611669 95.457906 9.191581 2.650001
-51.670981 95.457906 9.232617 -0.122420
-49.730293 95.457906 9.064698 -1.007999
-47.789605 95.457906 8.534960 0.153118
-45.848917 95.457906 9.201434 0.607059
-43.908229 95.457906 9.403439 0.355707
-41.967541 95.457906 9.516142 -0.066150
-40.026853 95.457906 9.519005 0.654993
-38.086165 95.457906 9.221209 0.768328
-36.145477 95.457906 0.000000 0.000000
-34.204789 95.457906 0.000000 0.000000
-32.264101 95.457906 0.000000 0.000000
-30.323413 95.457906 0.000000 0.000000
-28.382725 95.457906 0.000000 0.000000
-26.442037 95.457906 0.000000 0.000000
-24.501349 95.457906 0.000000 0.000000
-22.560661 95.457906 0.000000 0.000000
-20.619973 95.457906 0.000000 0.000000
-18.679285 95.457906 0.000000 0.000000
-16.738597 95.457906 0.000000 0.000000
-14.797909 95.457906 9.757912 1.067088
-12.857221 95.457906 9.660007 1.022779
-10.916533 95.457906 9.713610 0.817962
-8.975845 95.457906 9.631526 0.796289
-7.035157 95.457906 8.976135 0.613700
-5.094469 95.457906 8.793304 0.230242
-3.153781 95.457906 10.060512 0.748672
-1.213093 95.457906 10.957888 0.488060
0.727595 95.457906 11.368656 0.458876
2.668283 95.457906 11.057263 0.649924
4.608971 95.457906 11.331709 0.022333
6.549659 95.457906 10.759079 -0.219225
8.490347 95.457906 10.051826 -0.337595
10.431035 95.457906 9.071412 2.498418
12.371723 95.457906 9.384133 1.609490
14.312411 95.457906 9.068690 2.276479
16.253099 95.457906 9.492596 2.633623
18.193787 95.457906 9.217630 2.090825
20.134475 95.457906 10.050426 1.284665
22.075163 95.457906 10.825150 2.028000
24.015851 95.457906 10.679981 2.679303
25.956539 95.457906 10.097262 2.091558
27.897227 95.457906 10.927496 1.220749
29.837915 95.457906 10.659731 1.269900
31.778603 95.457906 10.034032 1.108179
33.719291 95.457906 9.859916 1.248181
35.659979 95.457906 10.051842 1.436711
37.600667 95.457906 10.644986 1.131428
39.541355 95.457906 10.365782 0.880475
41.482043 95.457906 10.167393 0.493624
43.422731 95.457906 9.930885 1.146874
45.363419 95.457906 9.880950 1.664507
47.304107 95.457906 10.026037 -2.299491
49.244796 95.457906 9.658810 -2.287113
51.185484 95.457906 10.185671 -1.970562
53.126172 95.457906 9.833161 -0.217427
55.066860 95.457906 9.771032 1.021315
57.007548 95.457906 9.955924 2.079894
58.948236 95.457906 0.000000 0.000000
60.888924 95.457906 0.000000 0.000000
62.829612 95.457906 0.000000 0.000000
64.770300 95.457906 9.892664 0.455618
66.710988 95.457906 10.291070 -0.025235
68.651676 95.457906 10.514503 0.083612
70.592364 95.457906 10.856522 0.188368
72.533052 95.457906 10.579429 -0.371651
74.473740 95.457906 10.666626 -0.709799
76.414428 95.457906 10.950831 -0.428603
78.355116 95.457906 11.254244 0.107123
80.295804 95.457906 11.154034 -0.510087
82.236492 95.457906 10.268072 -0.604489
84.177180 95.457906 10.090400 -0.501967
86.117868 95.457906 10.269874 -0.970980
88.058556 95.457906 10.382639 -0.532532
89.999244 95.457906 10.607482 -0.487956
91.939932 95.457906 10.494645 -0.434726
93.880620 95.457906 10.544215 0.086512
95.821308 95.457906 10.620531 0.190443
97.761996 95.457906 10.902014 0.072156
99.702684 95.457906 11.032845 -0.215859
101.643372 95.457906 10.770329 -0.095487
103.584060 95.457906 10.289871 -0.242501
105.524748 95.457906 10.159177 -0.243940
107.465436 95.457906 9.762235 -0.132738
109.406124 95.457906 9.737345 -0.157497
111.346812 95.457906 10.192583 -0.198321
113.287500 95.457906 10.447597 -0.121006
115.228188 95.457906 10.619344 0.122201
117.168876 95.457906 10.332742 0.117152
119.109564 95.457906 10.031389 -0.237705
121.050252 95.457906 10.111161 -0.451877
122.990940 95.457906 10.301358 -0.482239
124.931628 95.457906 10.137398 -0.137347
126.872316 95.457906 10.328457 -0.242865
128.813004 95.457906 10.404750 -0.649872
130.753692 95.457906 10.382834 -0.446574
132.694380 95.457906 10.388304 -0.212320
134.635068 95.457906 10.289451 -0.371724
136.575756 95.457906 10.476150 -0.399848
138.516444 95.457906 10.639681 -0.186345
140.457132 95.457906 0.000000 0.000000
-55.552357 93.517218 0.000000 0.000000
-53.611669 93.517218 9.499783 1.138854
-51.670981 93.517218 9.662615 0.540758
-49.730293 93.517218 9.395191 -0.221735
-47.789605 93.517218 9.521057 -0.024756
-45.848917 93.517218 9.511986 0.558514
-43.908229 93.517218 9.694217 0.588437
-41.967541 93.517218 9.557809 0.574369
-40.026853 93.517218 9.367989 0.683294
-38.086165 93.517218 9.169392 0.246190
-36.145477 93.517218 0.000000 0.000000
-34.204789 93.517218 0.000000 0.000000
-32.264101 93.517218 0.000000 0.000000
-30.323413 93.517218 0.000000 0.000000
-28.382725 93.517218 0.000000 0.000000
-26.442037 93.517218 0.000000 0.000000
-24.501349 93.517218 0.000000 0.000000
-22.560661 93.517218 0.000000 0.000000
-20.619973 93.517218 0.000000 0.000000
-18.679285 93.517218 0.000000 0.000000
-16.738597 93.517218 0.000000 0.000000
-14.797909 93.517218 9.984458 0.855727
-12.857221 93.517218 9.813219 1.228477
-10.916533 93.517218 9.730366 1.050093
-8.975845 93.517218 9.836545 0.889980
-7.035157 93.517218 9.709424 0.656091
-5.094469 93.517218 8.919409 0.340931
-3.153781 93.517218 9.083705 0.782581
-1.213093 93.517218 10.632533 1.381732
0.727595 93.517218 11.933483 0.807766
2.668283 93.517218 10.692142 0.738458
4.608971 93.517218 10.233301 0.954436
6.549659 93.517218 10.176981 -0.328141
8.490347 93.517218 11.337881 1.352317
10.431035 93.517218 0.000000 0.000000
12.371723 93.517218 10.795658 -0.054333
14.312411 93.517218 9.943638 2.401315
16.253099 93.517218 9.700971 3.283927
18.193787 93.517218 9.835600 3.316564
20.134475 93.517218 9.842970 2.037970
22.075163 93.517218 10.586594 1.230236
24.015851 93.517218 11.051576 0.825181
25.956539 93.517218 10.713286 1.109467
27.897227 93.517218 10.568008 1.151320
29.837915 93.517218 10.831487 1.194834
31.778603 93.517218 10.292080 1.200821
33.719291 93.517218 10.169656 0.769456
35.659979 93.517218 10.728004 0.776571
37.600667 93.517218 11.063919 0.678073
39.541355 93.517218 10.990224 0.510696
41.482043 93.517218 10.638889 0.749853
43.422731 93.517218 10.368550 0.780556
45.363419 93.517218 9.614665 -0.065013
47.304107 93.517218 9.549425 -0.047995
49.244796 93.517218 10.288838 -1.598694
51.185484 93.517218 10.215399 -0.790647
53.126172 93.517218 10.416409 0.683845
55.066860 93.517218 10.403119 0.493330
57.007548 93.517218 10.305708 0.902916
58.948236 93.517218 0.000000 0.000000
60.888924 93.517218 0.000000 0.000000
62.829612 93.517218 0.000000 0.000000
64.770300 93.517218 9.295546 0.266191
66.710988 93.517218 10.312255 0.152104
68.651676 93.517218 10.669469 -0.013653
70.592364 93.517218 10.643947 -0.098687
72.533052 93.517218 10.437196 0.056831
74.473740 93.517218 10.731355 -0.300486
76.414428 93.517218 11.244573 -0.663585
78.355116 93.517218 11.156083 -0.609369
80.295804 93.517218 10.891084 -0.853343
82.236492 93.517218 10.466986 -0.582477
84.177180 93.517218 10.089123 -0.273126
86.117868 93.517218 10.008331 -0.669677
88.058556 93.517218 10.175639 -0.292273
89.999244 93.517218 10.614097 -0.216764
91.939932 93.517218 10.926297 -0.085960
93.880620 93.517218 10.761413 0.104472
95.821308 93.517218 10.676036 0.192722
97.761996 93.517218 10.972535 0.171039
99.702684 93.517218 11.154288 -0.179205
101.643372 93.517218 11.055999 -0.569375
103.584060 93.517218 10.407056 -0.278322
105.524748 93.517218 10.113740 -0.112881
107.465436 93.517218 9.942309 -0.297319
109.406124 93.517218 9.963830 -0.472439
111.346812 93.517218 10.198385 -0.254771
113.287500 93.517218 10.353511 -0.057692
115.228188 93.517218 10.215381 0.173122
117.168876 93.517218 10.131432 -0.104034
119.109564 93.517218 10.154394 -0.365450
121.050252 93.517218 10.487698 -0.338308
122.990940 93.517218 10.613299 -0.198105
124.931628 93.517218 10.391712 0.025271
126.872316 93.517218 10.470204 -0.028121
128.813004 93.517218 10.407481 -0.327192
130.753692 93.517218 10.323827 -0.338245
132.694380 93.517218 10.792919 -0.164289
134.635068 93.517218 10.517416 -0.465010
136.575756 93.517218 10.203692 -0.398875
138.516444 93.517218 10.106286 -0.133607
140.457132 93.517218 0.000000 0.000000
-55.552357 91.576530 8.243186 1.503192
-53.611669 91.576530 8.713759 0.731677
-51.670981 91.576530 8.770007 0.397360
-49.730293 91.576530 9.193152 0.589211
-47.789605 91.576530 9.629646 0.538652
-45.848917 91.576530 9.511784 0.711082
-43.908229 91.576530 9.622691 0.606163
-41.967541 91.576530 9.304250 0.320328
-40.026853 91.576530 9.123496 -0.133792
-38.086165 91.576530 9.393637 -1.153245
-36.145477 91.576530 0.000000 0.000000
-34.204789 91.576530 0.000000 0.000000
-32.264101 91.576530 0.000000 0.000000
-30.323413 91.576530 0.000000 0.000000
-28.382725 91.576530 0.000000 0.000000
-26.442037 91.576530 0.000000 0.000000
-24.501349 91.576530 0.000000 0.000000
-22.560661 91.576530 0.000000 0.000000
-20.619973 91.576530 0.000000 0.000000
-18.679285 91.576530 0.000000 0.000000
-16.738597 91.576530 0.000000 0.000000
-14.797909 91.576530 9.896500 0.749526
-12.857221 91.576530 9.675229 1.277453
-10.916533 91.576530 9.632133 1.242962
-8.975845 91.576530 9.971774 0.791130
-7.035157 91.576530 10.237447 0.953047
-5.094469 91.576530 10.044367 0.934353
-3.153781 91.576530 9.761291 1.488088
-1.213093 91.576530 10.652465 1.725412
0.727595 91.576530 11.635923 1.303597
2.668283 91.576530 10.763933 1.030365
4.608971 91.576530 10.049797 1.038808
6.549659 91.576530 9.805708 0.527882
8.490347 91.576530 9.784672 1.346965
10.431035 91.576530 9.625514 2.462957
12.371723 91.576530 9.546611 1.326790
14.312411 91.576530 10.110225 1.727380
16.253099 91.576530 10.393826 2.315866
18.193787 91.576530 10.798091 3.199516
20.134475 91.576530 10.470352 2.575650
22.075163 91.576530 10.405135 0.716520
24.015851 91.576530 10.780730 0.724048
25.956539 91.576530 10.593084 1.067523
27.897227 91.576530 10.122849 1.106982
29.837915 91.576530 10.593843 1.408263
31.778603 91.576530 11.109360 1.451686
33.719291 91.576530 10.309583 1.393119
35.659979 91.576530 10.076456 1.278099
37.600667 91.576530 11.227786 0.178342
39.541355 91.576530 11.142827 0.074068
41.482043 91.576530 10.606410 1.005213
43.422731 91.576530 10.562275 0.086072
45.363419 91.576530 11.513077 -0.155916
47.304107 91.576530 11.221954 0.656367
49.244796 91.576530 10.500255 1.104847
51.185484 91.576530 10.626153 1.894651
53.126172 91.576530 11.109859 2.802621
55.066860 91.576530 10.708614 2.179423
57.007548 91.576530 9.842523 0.569517
58.948236 91.576530 0.000000 0.000000
60.888924 91.576530 0.000000 0.000000
62.829612 91.576530 0.000000 0.000000
64.770300 91.576530 9.841675 0.254845
66.710988 91.576530 10.438375 0.110501
68.651676 91.576530 10.890922 -0.075736
70.592364 91.576530 10.682875 0.116047
72.533052 91.576530 10.501908 0.127945
74.473740 91.576530 10.924375 0.179344
76.414428 91.576530 10.998683 0.199041
78.355116 91.576530 10.718300 0.256739
80.295804 91.576530 10.961956 0.383171
82.236492 91.576530 11.169883 0.188937
84.177180 91.576530 10.712199 0.159664
86.117868 91.576530 10.327917 0.042249
88.058556 91.576530 11.021646 -0.384903
89.999244 91.576530 10.887114 -0.041152
91.939932 91.576530 10.885615 0.160509
93.880620 91.576530 11.234186 -0.111016
95.821308 91.576530 10.536341 -0.141585
97.761996 91.576530 10.550576 -0.045563
99.702684 91.576530 11.115047 -0.341298
101.643372 91.576530 11.012100 -0.443914
103.584060 91.576530 10.532346 -0.188637
105.524748 91.576530 9.991021 -0.126381
107.465436 91.576530 10.041249 -0.276250
109.406124 91.576530 10.211748 -0.260288
111.346812 91.576530 10.250493 -0.184387
113.287500 91.576530 10.266977 -0.136384
115.228188 91.576530 10.216477 -0.021104
117.168876 91.576530 10.138934 -0.235281
119.109564 91.576530 10.360843 0.018826
121.050252 91.576530 10.508883 0.278051
122.990940 91.576530 10.694996 -0.095701
124.931628 91.576530 10.485524 0.043731
126.872316 91.576530 10.307173 0.045653
128.813004 91.576530 10.491711 -0.041020
130.753692 91.576530 10.544530 0.182054
132.694380 91.576530 10.899245 0.103695
134.635068 91.576530 10.716932 -0.382998
136.575756 91.576530 10.453928 -0.376897
138.516444 91.576530 10.088805 -0.076784
140.457132 91.576530 0.000000 0.000000
-55.552357 89.635842 8.964406 0.790948
-53.611669 89.635842 8.421473 0.866377
-51.670981 89.635842 8.409853 0.762796
-49.730293 89.635842 9.256771 0.596023
-47.789605 89.635842 9.590267 0.864410
-45.848917 89.635842 9.144467 0.761655
-43.908229 89.635842 8.945385 0.502520
-41.967541 89.635842 9.332060 0.077025
-40.026853 89.635842 9.130565 -0.160862
-38.086165 89.635842 9.207563 -0.271185
-36.145477 89.635842 0.000000 0.000000
-34.204789 89.635842 0.000000 0.000000
-32.264101 89.635842 0.000000 0.000000
-30.323413 89.635842 0.000000 0.000000
-28.382725 89.635842 0.000000 0.000000
-26.442037 89.635842 0.000000 0.000000
-24.501349 89.635842 0.000000 0.000000
-22.560661 89.635842 0.000000 0.000000
-20.619973 89.635842 0.000000 0.000000
-18.679285 89.635842 0.000000 0.000000
-16.738597 89.635842 0.000000 0.000000
-14.797909 89.635842 9.742425 1.078793
-12.857221 89.635842 9.647327 1.016431
-10.916533 89.635842 9.810102 1.025814
-8.975845 89.635842 9.885798 0.954747
-7.035157 89.635842 9.965053 0.547530
-5.094469 89.635842 9.762542 0.943579
-3.153781 89.635842 9.701149 1.759729
-1.213093 89.635842 9.942472 2.196315
0.727595 89.635842 10.415740 1.296022
2.668283 89.635842 10.697575 0.470662
4.608971 89.635842 10.434085 0.299937
6.549659 89.635842 10.102845 0.932362
8.490347 89.635842 10.111274 1.228941
10.431035 89.635842 10.008264 0.933866
12.371723 89.635842 9.805726 0.828488
14.312411 89.635842 9.366972 1.307565
16.253099 89.635842 9.807753 1.510178
18.193787 89.635842 11.037978 0.971768
20.134475 89.635842 11.057387 0.478199
22.075163 89.635842 10.401437 0.371422
24.015851 89.635842 10.326128 1.081026
25.956539 89.635842 10.330538 1.111442