TITLE = "B00043"
VARIABLES = "position", "position(2)", "Vx", "Vy"
ZONE T="Frame 0", I=102, J=78
-55.552357 103.220658 0.000000 0.000000
-53.611669 103.220658 8.468246 1.785239
-51.670981 103.220658 0.000000 0.000000
-49.730293 103.220658 8.962974 1.142139
-47.789605 103.220658 9.181781 1.654290
-45.848917 103.220658 9.548018 1.597196
-43.908229 103.220658 10.126779 0.716183
-41.967541 103.220658 9.838874 0.349066
-40.026853 103.220658 9.622218 0.274260
-38.086165 103.220658 0.000000 0.000000
-36.145477 103.220658 0.000000 0.000000
-34.204789 103.220658 0.000000 0.000000
-32.264101 103.220658 0.000000 0.000000
-30.323413 103.220658 0.000000 0.000000
-28.382725 103.220658 0.000000 0.000000
-26.442037 103.220658 0.000000 0.000000
-24.501349 103.220658 0.000000 0.000000
-22.560661 103.220658 0.000000 0.000000
-20.619973 103.220658 0.000000 0.000000
-18.679285 103.220658 0.000000 0.000000
-16.738597 103.220658 0.000000 0.000000
-14.797909 103.220658 0.000000 0.000000
-12.857221 103.220658 10.300838 0.180757
-10.916533 103.220658 10.056523 0.495088
-8.975845 103.220658 9.827200 0.506691
-7.035157 103.220658 9.916554 0.423405
-5.094469 103.220658 9.857030 1.017190
-3.153781 103.220658 9.440198 0.874736
-1.213093 103.220658 9.018790 0.826033
0.727595 103.220658 9.094641 1.569061
2.668283 103.220658 9.061517 1.197610
4.608971 103.220658 8.336122 -0.675700
6.549659 103.220658 0.000000 0.000000
8.490347 103.220658 8.648013 -0.917039
10.431035 103.220658 8.925373 -1.207788
12.371723 103.220658 9.618638 -0.646235
14.312411 103.220658 8.979893 -0.404140
16.253099 103.220658 9.217945 1.639101
18.193787 103.220658 9.508995 0.348310
20.134475 103.220658 9.968391 0.137632
22.075163 103.220658 10.858892 0.962335
24.015851 103.220658 10.043788 0.708727
25.956539 103.220658 10.703300 -1.194823
27.897227 103.220658 11.134586 0.008657
29.837915 103.220658 10.941309 -0.061377
31.778603 103.220658 10.071667 0.407452
33.719291 103.220658 11.657695 1.537175
35.659979 103.220658 11.991955 0.511885
37.600667 103.220658 11.149634 1.752504
39.541355 103.220658 9.759436 1.694774
41.482043 103.220658 9.101197 1.683109
43.422731 103.220658 9.960159 0.695523
45.363419 103.220658 11.144831 0.592384
47.304107 103.220658 11.763367 0.401995
49.244796 103.220658 11.794907 0.220860
51.185484 103.220658 10.995377 0.446912
53.126172 103.220658 9.723263 0.645941
55.066860 103.220658 8.635960 0.668034
57.007548 103.220658 0.000000 0.000000
58.948236 103.220658 0.000000 0.000000
60.888924 103.220658 0.000000 0.000000
62.829612 103.220658 0.000000 0.000000
64.770300 103.220658 0.000000 0.000000
66.710988 103.220658 11.322064 -0.374725
68.651676 103.220658 10.220331 0.774740
70.592364 103.220658 10.732414 1.175240
72.533052 103.220658 11.845432 0.776655
74.473740 103.220658 11.309361 0.296693
76.414428 103.220658 10.904905 0.035284
78.355116 103.220658 10.757862 -0.481849
80.295804 103.220658 10.644782 -0.710407
82.236492 103.220658 10.813519 -0.553630
84.177180 103.220658 11.086805 -0.261483
86.117868 103.220658 10.981533 0.022442
88.058556 103.220658 10.579928 0.286781
89.999244 103.220658 10.903917 0.162251
91.939932 103.220658 11.097517 -0.062902
93.880620 103.220658 10.717192 -0.137604
95.821308 103.220658 10.750895 -0.219697
97.761996 103.220658 11.610860 -0.416693
99.702684 103.220658 11.237207 -0.390462
101.643372 103.220658 10.989403 -0.034627
103.584060 103.220658 10.901874 -0.026605
105.524748 103.220658 10.585493 -1.144452
107.465436 103.220658 10.307133 -0.537278
109.406124 103.220658 9.836417 -0.374970
111.346812 103.220658 10.289725 -0.136309
113.287500 103.220658 10.030925 -0.064373
115.228188 103.220658 10.303946 -0.496063
117.168876 103.220658 10.929073 -0.527293
119.109564 103.220658 11.000539 -0.314155
121.050252 103.220658 10.375662 -0.349038
122.990940 103.220658 10.613099 -0.089533
124.931628 103.220658 10.664636 0.015596
126.872316 103.220658 10.235311 -0.264360
128.813004 103.220658 10.256948 -0.106921
130.753692 103.220658 10.113944 -1.418085
132.694380 103.220658 10.151656 -0.868001
134.635068 103.220658 10.024070 -0.545884
136.575756 103.220658 10.162810 -0.259995
138.516444 103.220658 10.464036 -0.615822
140.457132 103.220658 0.000000 0.000000
-55.552357 101.279970 8.035696 1.732053
-53.611669 101.279970 8.409524 1.797929
-51.670981 101.279970 0.000000 0.000000
-49.730293 101.279970 9.042341 0.370712
-47.789605 101.279970 8.906248 1.376838
-45.848917 101.279970 8.866043 1.624660
-43.908229 101.279970 9.514962 0.031294
-41.967541 101.279970 9.750299 0.630885
-40.026853 101.279970 9.640382 1.087794
-38.086165 101.279970 0.000000 0.000000
-36.145477 101.279970 0.000000 0.000000
-34.204789 101.279970 0.000000 0.000000
-32.264101 101.279970 0.000000 0.000000
-30.323413 101.279970 0.000000 0.000000
-28.382725 101.279970 0.000000 0.000000
-26.442037 101.279970 0.000000 0.000000
-24.501349 101.279970 0.000000 0.000000
-22.560661 101.279970 0.000000 0.000000
-20.619973 101.279970 0.000000 0.000000
-18.679285 101.279970 0.000000 0.000000
-16.738597 101.279970 0.000000 0.000000
-14.797909 101.279970 10.193655 0.195637
-12.857221 101.279970 10.043473 0.456528
-10.916533 101.279970 9.775150 0.693999
-8.975845 101.279970 9.584678 0.597544
-7.035157 101.279970 9.543961 1.153520
-5.094469 101.279970 9.721252 1.268609
-3.153781 101.279970 9.556290 0.780807
-1.213093 101.279970 8.969420 0.904671
0.727595 101.279970 9.125690 1.486331
2.668283 101.279970 9.160342 0.981684
4.608971 101.279970 0.000000 0.000000
6.549659 101.279970 8.064328 0.992674
8.490347 101.279970 9.598960 -0.126160
10.431035 101.279970 9.246943 -1.517568
12.371723 101.279970 9.713685 -0.967311
14.312411 101.279970 9.767247 0.798613
16.253099 101.279970 9.870262 1.667967
18.193787 101.279970 9.816515 -0.392504
20.134475 101.279970 10.370725 0.718481
22.075163 101.279970 10.433233 2.165566
24.015851 101.279970 10.116549 1.570003
25.956539 101.279970 10.216853 -0.270946
27.897227 101.279970 9.812355 0.954076
29.837915 101.279970 11.482825 -0.285036
31.778603 101.279970 9.805853 2.247600
33.719291 101.279970 11.591861 1.878242
35.659979 101.279970 10.830163 0.358815
37.600667 101.279970 10.977373 1.864810
39.541355 101.279970 10.012434 2.112626
41.482043 101.279970 9.611641 1.738716
43.422731 101.279970 10.250031 0.583690
45.363419 101.279970 11.157135 0.956565
47.304107 101.279970 11.498093 0.549464
49.244796 101.279970 11.593410 0.221505
51.185484 101.279970 10.567635 0.074476
53.126172 101.279970 9.945655 0.067049
55.066860 101.279970 10.258182 0.551201
57.007548 101.279970 11.483217 1.375998
58.948236 101.279970 0.000000 0.000000
60.888924 101.279970 0.000000 0.000000
62.829612 101.279970 0.000000 0.000000
64.770300 101.279970 0.000000 0.000000
66.710988 101.279970 10.742931 -0.138035
68.651676 101.279970 10.778104 0.534016
70.592364 101.279970 10.817737 0.876484
72.533052 101.279970 11.113582 0.486352
74.473740 101.279970 10.876226 0.260913
76.414428 101.279970 10.800890 0.190066
78.355116 101.279970 10.847692 0.177165
80.295804 101.279970 10.909511 0.081927
82.236492 101.279970 11.228463 -0.008450
84.177180 101.279970 11.257037 0.082349
86.117868 101.279970 11.070642 -0.007938
88.058556 101.279970 10.530828 0.169843
89.999244 101.279970 10.818892 -0.033265
91.939932 101.279970 11.026958 -0.557567
93.880620 101.279970 10.635169 -0.642959
95.821308 101.279970 10.386020 -0.400005
97.761996 101.279970 10.701418 -0.237829
99.702684 101.279970 10.772589 -0.284854
101.643372 101.279970 10.555661 -0.046913
103.584060 101.279970 10.602120 -0.517563
105.524748 101.279970 11.115318 -0.736921
107.465436 101.279970 10.756875 -0.444242
109.406124 101.279970 10.171188 -0.368883
111.346812 101.279970 10.168642 -0.145486
113.287500 101.279970 10.069212 -0.155805
115.228188 101.279970 10.192980 -0.389713
117.168876 101.279970 10.698173 -0.479586
119.109564 101.279970 10.659002 -0.452683
121.050252 101.279970 10.051184 -0.434578
122.990940 101.279970 9.970238 -0.190105
124.931628 101.279970 10.324706 0.224289
126.872316 101.279970 10.351627 0.212658
128.813004 101.279970 10.496446 -0.495753
130.753692 101.279970 10.287234 -1.112432
132.694380 101.279970 10.022289 -1.081324
134.635068 101.279970 9.715066 -0.585238
136.575756 101.279970 9.545884 -0.398651
138.516444 101.279970 9.564483 -0.563820
140.457132 101.279970 0.000000 0.000000
-55.552357 99.339282 7.681336 1.200574
-53.611669 99.339282 7.860434 0.683856
-51.670981 99.339282 10.617818 -0.474356
-49.730293 99.339282 9.621394 0.850921
-47.789605 99.339282 8.908037 0.609880
-45.848917 99.339282 7.960096 0.587106
-43.908229 99.339282 7.658527 0.679748
-41.967541 99.339282 9.839568 0.942062
-40.026853 99.339282 9.885864 1.047712
-38.086165 99.339282 0.000000 0.000000
-36.145477 99.339282 0.000000 0.000000
-34.204789 99.339282 0.000000 0.000000
-32.264101 99.339282 0.000000 0.000000
-30.323413 99.339282 0.000000 0.000000
-28.382725 99.339282 0.000000 0.000000
-26.442037 99.339282 0.000000 0.000000
-24.501349 99.339282 0.000000 0.000000
-22.560661 99.339282 0.000000 0.000000
-20.619973 99.339282 0.000000 0.000000
-18.679285 99.339282 0.000000 0.000000
-16.738597 99.339282 0.000000 0.000000
-14.797909 99.339282 9.754714 0.440627
-12.857221 99.339282 9.715382 0.581885
-10.916533 99.339282 9.585342 0.993715
-8.975845 99.339282 9.374319 1.189629
-7.035157 99.339282 9.557079 1.757204
-5.094469 99.339282 9.761353 1.979358
-3.153781 99.339282 10.076741 1.225070
-1.213093 99.339282 9.461874 0.780317
0.727595 99.339282 9.686454 1.128924
2.668283 99.339282 9.879573 1.274214
4.608971 99.339282 9.822959 -0.217407
6.549659 99.339282 9.014268 1.812857
8.490347 99.339282 8.778253 1.171037
10.431035 99.339282 8.934006 -1.154097
12.371723 99.339282 9.248460 0.741689
14.312411 99.339282 11.636999 0.769764
16.253099 99.339282 10.698500 -0.954385
18.193787 99.339282 9.040368 0.684914
20.134475 99.339282 11.888825 1.607630
22.075163 99.339282 10.506596 2.115909
24.015851 99.339282 9.712021 0.424729
25.956539 99.339282 10.546515 0.602160
27.897227 99.339282 11.169847 0.926296
29.837915 99.339282 10.608811 -0.537005
31.778603 99.339282 11.891893 0.621964
33.719291 99.339282 9.227143 2.189760
35.659979 99.339282 9.984820 1.761052
37.600667 99.339282 12.480918 1.049691
39.541355 99.339282 10.019320 2.734380
41.482043 99.339282 9.010909 2.035622
43.422731 99.339282 0.000000 0.000000
45.363419 99.339282 0.000000 0.000000
47.304107 99.339282 10.772527 0.417458
49.244796 99.339282 11.238727 0.204391
51.185484 99.339282 10.263069 -0.016665
53.126172 99.339282 9.849483 -0.289490
55.066860 99.339282 9.599111 0.061921
57.007548 99.339282 9.198910 0.574975
58.948236 99.339282 0.000000 0.000000
60.888924 99.339282 0.000000 0.000000
62.829612 99.339282 0.000000 0.000000
64.770300 99.339282 0.000000 0.000000
66.710988 99.339282 10.573168 -0.273353
68.651676 99.339282 11.078565 0.214848
70.592364 99.339282 10.821676 0.194184
72.533052 99.339282 10.176554 0.333514
74.473740 99.339282 10.069575 0.059222
76.414428 99.339282 10.978005 -0.066025
78.355116 99.339282 10.992336 0.058559
80.295804 99.339282 10.762652 0.207036
82.236492 99.339282 10.820320 0.301030
84.177180 99.339282 10.660715 0.248958
86.117868 99.339282 10.896301 0.053003
88.058556 99.339282 10.697834 0.170921
89.999244 99.339282 10.794775 -0.009564
91.939932 99.339282 10.981421 -0.711363
93.880620 99.339282 10.898724 -0.999237
95.821308 99.339282 10.480754 -0.208306
97.761996 99.339282 10.371669 0.024702
99.702684 99.339282 10.569673 -0.102978
101.643372 99.339282 10.218493 -0.222179
103.584060 99.339282 10.317399 -0.490509
105.524748 99.339282 11.129032 -0.503410
107.465436 99.339282 11.251692 -0.244890
109.406124 99.339282 10.618748 -0.190733
111.346812 99.339282 10.205481 -0.300993
113.287500 99.339282 9.920515 -0.411850
115.228188 99.339282 10.114954 -0.456366
117.168876 99.339282 10.486197 -0.589546
119.109564 99.339282 10.274139 -0.887069
121.050252 99.339282 9.891388 -0.843452
122.990940 99.339282 9.414816 -0.596697
124.931628 99.339282 9.883558 -0.423646
126.872316 99.339282 10.385955 -0.611726
128.813004 99.339282 10.487549 -1.059685
130.753692 99.339282 10.619638 -0.937473
132.694380 99.339282 10.256890 -0.544285
134.635068 99.339282 9.884338 -0.472789
136.575756 99.339282 9.559864 -0.639483
138.516444 99.339282 9.280995 -0.684758
140.457132 99.339282 0.000000 0.000000
-55.552357 97.398594 7.198917 1.772586
-53.611669 97.398594 7.971800 1.425474
-51.670981 97.398594 7.549944 0.871010
-49.730293 97.398594 9.482236 0.857291
-47.789605 97.398594 9.193473 0.826355
-45.848917 97.398594 8.253480 0.692679
-43.908229 97.398594 8.344551 0.509351
-41.967541 97.398594 9.210593 0.685145
-40.026853 97.398594 9.451585 0.881641
-38.086165 97.398594 0.000000 0.000000
-36.145477 97.398594 0.000000 0.000000
-34.204789 97.398594 0.000000 0.000000
-32.264101 97.398594 0.000000 0.000000
-30.323413 97.398594 0.000000 0.000000
-28.382725 97.398594 0.000000 0.000000
-26.442037 97.398594 0.000000 0.000000
-24.501349 97.398594 0.000000 0.000000
-22.560661 97.398594 0.000000 0.000000
-20.619973 97.398594 0.000000 0.000000
-18.679285 97.398594 0.000000 0.000000
-16.738597 97.398594 0.000000 0.000000
-14.797909 97.398594 9.688718 0.447896
-12.857221 97.398594 9.942861 0.480234
-10.916533 97.398594 9.847649 0.449671
-8.975845 97.398594 9.594572 0.828189
-7.035157 97.398594 9.728267 1.223046
-5.094469 97.398594 9.593014 1.842254
-3.153781 97.398594 9.266883 2.399332
-1.213093 97.398594 9.889370 0.496047
0.727595 97.398594 10.294816 0.635604
2.668283 97.398594 10.814271 0.767519
4.608971 97.398594 10.377154 0.594783
6.549659 97.398594 8.282688 1.741077
8.490347 97.398594 10.199041 -1.109437
10.431035 97.398594 9.672708 0.475209
12.371723 97.398594 10.641030 1.225190
14.312411 97.398594 11.156997 0.544201
16.253099 97.398594 0.000000 0.000000
18.193787 97.398594 8.706096 0.809043
20.134475 97.398594 11.120388 1.752114
22.075163 97.398594 10.458021 -0.233273
24.015851 97.398594 10.379411 0.211398
25.956539 97.398594 10.613427 0.727098
27.897227 97.398594 10.166423 1.039616
29.837915 97.398594 9.296990 0.654951
31.778603 97.398594 9.804773 -1.863368
33.719291 97.398594 10.608794 0.188276
35.659979 97.398594 10.344215 1.246281
37.600667 97.398594 10.547983 2.571355
39.541355 97.398594 9.260811 2.586301
41.482043 97.398594 9.172953 2.404305
43.422731 97.398594 0.000000 0.000000
45.363419 97.398594 9.702987 1.802325
47.304107 97.398594 10.373164 0.826534
49.244796 97.398594 9.554278 0.180914
51.185484 97.398594 9.987717 0.605547
53.126172 97.398594 9.777829 0.211464
55.066860 97.398594 0.000000 0.000000
57.007548 97.398594 0.000000 0.000000
58.948236 97.398594 0.000000 0.000000
60.888924 97.398594 0.000000 0.000000
62.829612 97.398594 0.000000 0.000000
64.770300 97.398594 0.000000 0.000000
66.710988 97.398594 10.476519 -0.589319
68.651676 97.398594 10.957935 0.433711
70.592364 97.398594 10.594122 1.275121
72.533052 97.398594 10.125400 0.529943
74.473740 97.398594 10.239192 0.001427
76.414428 97.398594 10.657334 0.038131
78.355116 97.398594 10.513192 -0.096535
80.295804 97.398594 10.177835 -0.276936
82.236492 97.398594 10.456374 -0.052948
84.177180 97.398594 10.119345 0.024696
86.117868 97.398594 10.371350 -0.150284
88.058556 97.398594 11.099506 0.049839
89.999244 97.398594 10.904403 0.104705
91.939932 97.398594 10.987597 -0.308715
93.880620 97.398594 11.481326 -0.886280
95.821308 97.398594 10.945490 -0.150099
97.761996 97.398594 10.261188 0.695384
99.702684 97.398594 10.524674 -0.077536
101.643372 97.398594 10.841200 -0.041175
103.584060 97.398594 10.531111 -0.118544
105.524748 97.398594 10.527514 -0.567444
107.465436 97.398594 10.959760 -0.385535
109.406124 97.398594 10.837399 -0.019868
111.346812 97.398594 10.465217 -0.203552
113.287500 97.398594 10.056107 -0.251916
115.228188 97.398594 10.257429 -0.438639
117.168876 97.398594 10.393170 -0.816157
119.109564 97.398594 10.060434 -1.057162
121.050252 97.398594 10.297801 -1.297637
122.990940 97.398594 10.102286 -0.940909
124.931628 97.398594 10.249104 -0.626608
126.872316 97.398594 10.370742 -0.752171
128.813004 97.398594 10.320170 -0.694107
130.753692 97.398594 10.333431 -0.256418
132.694380 97.398594 10.287352 -0.053022
134.635068 97.398594 10.341755 -0.216028
136.575756 97.398594 10.400988 -0.290197
138.516444 97.398594 10.791576 -0.159083
140.457132 97.398594 0.000000 0.000000
-55.552357 95.457906 0.000000 0.000000
-53.611669 95.457906 8.447495 2.106268
-51.670981 95.457906 8.760962 2.175262
-49.730293 95.457906 8.971129 1.422503
-47.789605 95.457906 9.375915 1.166699
-45.848917 95.457906 9.340151 0.650651
-43.908229 95.457906 9.492327 0.412293
-41.967541 95.457906 9.442876 0.546669
-40.026853 95.457906 9.182228 0.644514
-38.086165 95.457906 9.168273 0.686498
-36.145477 95.457906 0.000000 0.000000
-34.204789 95.457906 0.000000 0.000000
-32.264101 95.457906 0.000000 0.000000
-30.323413 95.457906 0.000000 0.000000
-28.382725 95.457906 0.000000 0.000000
-26.442037 95.457906 0.000000 0.000000
-24.501349 95.457906 0.000000 0.000000
-22.560661 95.457906 0.000000 0.000000
-20.619973 95.457906 0.000000 0.000000
-18.679285 95.457906 0.000000 0.000000
-16.738597 95.457906 0.000000 0.000000
-14.797909 95.457906 9.738599 0.527387
-12.857221 95.457906 10.007934 0.621318
-10.916533 95.457906 9.746598 0.352861
-8.975845 95.457906 9.676178 0.979925
-7.035157 95.457906 9.711066 1.491623
-5.094469 95.457906 9.300694 1.812526
-3.153781 95.457906 8.579625 2.243675
-1.213093 95.457906 8.741294 1.874931
0.727595 95.457906 9.053606 1.854782
2.668283 95.457906 11.747134 0.445946
4.608971 95.457906 9.921617 1.351234
6.549659 95.457906 7.980941 1.421461
8.490347 95.457906 8.110802 1.004282
10.431035 95.457906 9.377418 0.220612
12.371723 95.457906 10.630589 1.506398
14.312411 95.457906 10.176521 2.073330
16.253099 95.457906 8.771661 1.421797
18.193787 95.457906 8.758016 1.383194
20.134475 95.457906 9.262682 0.558075
22.075163 95.457906 10.076559 -0.328159
24.015851 95.457906 11.046464 1.060462
25.956539 95.457906 11.074541 1.123036
27.897227 95.457906 10.062253 0.881493
29.837915 95.457906 9.613233 0.964035
31.778603 95.457906 10.186211 0.128663
33.719291 95.457906 10.746673 -0.498884
35.659979 95.457906 10.162013 0.974705
37.600667 95.457906 9.526506 2.134426
39.541355 95.457906 9.292407 1.986166
41.482043 95.457906 9.568855 0.808746
43.422731 95.457906 9.828044 1.558889
45.363419 95.457906 9.801250 2.401399
47.304107 95.457906 10.064290 1.589787
49.244796 95.457906 11.165600 0.776478
51.185484 95.457906 0.000000 0.000000
53.126172 95.457906 9.725708 0.993890
55.066860 95.457906 9.424150 0.983098
57.007548 95.457906 10.787129 -0.453620
58.948236 95.457906 0.000000 0.000000
60.888924 95.457906 0.000000 0.000000
62.829612 95.457906 0.000000 0.000000
64.770300 95.457906 9.798826 0.376986
66.710988 95.457906 10.510687 0.692161
68.651676 95.457906 11.219795 1.189241
70.592364 95.457906 11.073020 1.189818
72.533052 95.457906 11.215735 0.177981
74.473740 95.457906 10.794554 -0.257648
76.414428 95.457906 9.812370 0.297834
78.355116 95.457906 9.691481 0.139003
80.295804 95.457906 10.467158 -0.279493
82.236492 95.457906 10.826824 -0.498327
84.177180 95.457906 11.148131 -0.482803
86.117868 95.457906 10.687852 -0.377657
88.058556 95.457906 10.924845 -0.221826
89.999244 95.457906 10.727144 -0.070512
91.939932 95.457906 10.849405 -0.077411
93.880620 95.457906 11.171110 -0.212146
95.821308 95.457906 11.043065 0.094481
97.761996 95.457906 10.375737 0.137239
99.702684 95.457906 10.673654 -0.197860
101.643372 95.457906 11.162477 -0.082510
103.584060 95.457906 10.494235 0.523612
105.524748 95.457906 10.326342 -0.499346
107.465436 95.457906 10.788679 -0.311257
109.406124 95.457906 10.710351 0.002298
111.346812 95.457906 10.377584 -0.112156
113.287500 95.457906 10.460446 -0.200475
115.228188 95.457906 10.399965 -0.528260
117.168876 95.457906 10.406664 -0.853569
119.109564 95.457906 10.178931 -1.100797
121.050252 95.457906 10.646626 -1.050163
122.990940 95.457906 10.801007 -0.646761
124.931628 95.457906 10.484008 -0.385868
126.872316 95.457906 10.317889 -0.338616
128.813004 95.457906 10.195181 -0.338473
130.753692 95.457906 10.319011 -0.478840
132.694380 95.457906 10.502829 -0.331921
134.635068 95.457906 10.473503 -0.242135
136.575756 95.457906 10.314853 -0.296594
138.516444 95.457906 9.907240 -0.117497
140.457132 95.457906 0.000000 0.000000
-55.552357 93.517218 0.000000 0.000000
-53.611669 93.517218 8.760656 1.790785
-51.670981 93.517218 9.519168 1.999590
-49.730293 93.517218 9.500107 2.082333
-47.789605 93.517218 9.411798 1.175495
-45.848917 93.517218 9.577071 0.500679
-43.908229 93.517218 9.768911 0.344143
-41.967541 93.517218 9.850631 0.599876
-40.026853 93.517218 9.118688 0.790524
-38.086165 93.517218 0.000000 0.000000
-36.145477 93.517218 0.000000 0.000000
-34.204789 93.517218 0.000000 0.000000
-32.264101 93.517218 0.000000 0.000000
-30.323413 93.517218 0.000000 0.000000
-28.382725 93.517218 0.000000 0.000000
-26.442037 93.517218 0.000000 0.000000
-24.501349 93.517218 0.000000 0.000000
-22.560661 93.517218 0.000000 0.000000
-20.619973 93.517218 0.000000 0.000000
-18.679285 93.517218 0.000000 0.000000
-16.738597 93.517218 0.000000 0.000000
-14.797909 93.517218 9.689157 0.871190
-12.857221 93.517218 9.765008 0.884078
-10.916533 93.517218 9.632656 0.902049
-8.975845 93.517218 9.769009 1.347155
-7.035157 93.517218 10.127880 1.770528
-5.094469 93.517218 9.608975 1.728068
-3.153781 93.517218 8.890123 2.016997
-1.213093 93.517218 8.664257 2.453244
0.727595 93.517218 9.253692 1.884609
2.668283 93.517218 9.822980 1.925798
4.608971 93.517218 9.055632 1.642613
6.549659 93.517218 8.572434 0.811166
8.490347 93.517218 9.295277 0.004656
10.431035 93.517218 9.628441 0.111750
12.371723 93.517218 10.196411 0.838581
14.312411 93.517218 9.284294 1.828883
16.253099 93.517218 8.776365 1.939081
18.193787 93.517218 9.417612 0.823297
20.134475 93.517218 0.000000 0.000000
22.075163 93.517218 0.000000 0.000000
24.015851 93.517218 10.682472 2.628285
25.956539 93.517218 10.172943 2.551906
27.897227 93.517218 10.127760 0.875430
29.837915 93.517218 10.163338 0.031755
31.778603 93.517218 10.306633 -0.474813
33.719291 93.517218 9.753391 0.841464
35.659979 93.517218 9.252895 1.183754
37.600667 93.517218 9.294332 0.999420
39.541355 93.517218 9.209519 0.863348
41.482043 93.517218 10.351735 -0.578148
43.422731 93.517218 10.397367 0.785761
45.363419 93.517218 10.445004 2.735461
47.304107 93.517218 11.164389 2.187302
49.244796 93.517218 11.189703 1.021642
51.185484 93.517218 10.475532 0.604158
53.126172 93.517218 9.853131 0.649886
55.066860 93.517218 10.136912 0.652650
57.007548 93.517218 10.615189 -0.082695
58.948236 93.517218 0.000000 0.000000
60.888924 93.517218 0.000000 0.000000
62.829612 93.517218 0.000000 0.000000
64.770300 93.517218 10.133530 0.206538
66.710988 93.517218 10.582495 0.966973
68.651676 93.517218 10.681273 1.658050
70.592364 93.517218 10.789438 0.179868
72.533052 93.517218 10.686616 -0.245059
74.473740 93.517218 10.577968 -0.065138
76.414428 93.517218 10.250716 0.166944
78.355116 93.517218 11.100529 0.959376
80.295804 93.517218 10.793709 0.206389
82.236492 93.517218 10.856380 -0.249331
84.177180 93.517218 10.801120 0.043005
86.117868 93.517218 10.393988 -0.028084
88.058556 93.517218 10.272537 -0.011922
89.999244 93.517218 10.201688 0.259534
91.939932 93.517218 10.359558 -0.120918
93.880620 93.517218 10.758914 -0.029583
95.821308 93.517218 10.621780 0.231371
97.761996 93.517218 10.443558 -0.083733
99.702684 93.517218 10.873518 -0.341251
101.643372 93.517218 10.900972 -0.194223
103.584060 93.517218 10.446175 0.258644
105.524748 93.517218 10.692204 0.064341
107.465436 93.517218 11.001879 0.026969
109.406124 93.517218 10.681275 0.175146
111.346812 93.517218 10.323102 0.050878
113.287500 93.517218 10.349118 -0.198350
115.228188 93.517218 10.248166 -0.410879
117.168876 93.517218 10.560302 -0.838828
119.109564 93.517218 10.859483 -1.080733
121.050252 93.517218 10.581331 -0.752311
122.990940 93.517218 10.407194 -0.525071
124.931628 93.517218 10.263651 -0.322070
126.872316 93.517218 10.143477 0.000074
128.813004 93.517218 10.156011 -0.255438
130.753692 93.517218 10.448450 -0.759958
132.694380 93.517218 10.396008 -0.483360
134.635068 93.517218 10.213967 -0.385184
136.575756 93.517218 9.922423 -0.664242
138.516444 93.517218 9.801320 -0.315839
140.457132 93.517218 0.000000 0.000000
-55.552357 91.576530 7.934237 1.222642
-53.611669 91.576530 8.853188 1.178314
-51.670981 91.576530 9.557021 1.311384
-49.730293 91.576530 9.369984 1.227005
-47.789605 91.576530 9.356001 0.680661
-45.848917 91.576530 9.231271 0.545206
-43.908229 91.576530 9.448274 0.390161
-41.967541 91.576530 9.876822 0.708946
-40.026853 91.576530 9.142262 0.932720
-38.086165 91.576530 8.323940 0.206187
-36.145477 91.576530 0.000000 0.000000
-34.204789 91.576530 0.000000 0.000000
-32.264101 91.576530 0.000000 0.000000
-30.323413 91.576530 0.000000 0.000000
-28.382725 91.576530 0.000000 0.000000
-26.442037 91.576530 0.000000 0.000000
-24.501349 91.576530 0.000000 0.000000
-22.560661 91.576530 0.000000 0.000000
-20.619973 91.576530 0.000000 0.000000
-18.679285 91.576530 0.000000 0.000000
-16.738597 91.576530 0.000000 0.000000
-14.797909 91.576530 9.310303 0.956026
-12.857221 91.576530 9.406631 0.969421
-10.916533 91.576530 9.602811 1.129325
-8.975845 91.576530 9.898851 1.158181
-7.035157 91.576530 10.084972 1.349559
-5.094469 91.576530 10.128127 0.917415
-3.153781 91.576530 9.559105 1.167523
-1.213093 91.576530 9.258355 1.724365
0.727595 91.576530 8.913544 1.755682
2.668283 91.576530 10.638497 2.375252
4.608971 91.576530 10.891035 3.402181
6.549659 91.576530 10.306299 0.742789
8.490347 91.576530 9.831767 0.535116
10.431035 91.576530 9.715594 0.699149
12.371723 91.576530 10.133357 1.056594
14.312411 91.576530 9.994261 1.657667
16.253099 91.576530 9.568750 1.261234
18.193787 91.576530 9.950263 0.615495
20.134475 91.576530 9.866974 0.480110
22.075163 91.576530 9.359470 0.852067
24.015851 91.576530 10.002831 2.258060
25.956539 91.576530 9.331716 3.215977
27.897227 91.576530 8.981494 0.861483
29.837915 91.576530 9.041596 0.471845
31.778603 91.576530 11.154931 0.347597
33.719291 91.576530 9.961229 0.925127
35.659979 91.576530 9.580487 1.102649
37.600667 91.576530 10.445505 0.848793
39.541355 91.576530 10.713806 -0.411324
41.482043 91.576530 10.448713 -0.793565
43.422731 91.576530 9.910928 2.305173
45.363419 91.576530 10.833358 2.766363
47.304107 91.576530 11.185546 2.109674
49.244796 91.576530 11.204000 0.932712
51.185484 91.576530 10.930320 0.386698
53.126172 91.576530 10.414567 0.559623
55.066860 91.576530 11.196725 1.703900
57.007548 91.576530 11.757170 1.725335
58.948236 91.576530 0.000000 0.000000
60.888924 91.576530 0.000000 0.000000
62.829612 91.576530 0.000000 0.000000
64.770300 91.576530 10.422812 0.006481
66.710988 91.576530 10.419721 0.585088
68.651676 91.576530 10.676047 0.605373
70.592364 91.576530 10.661098 -0.042875
72.533052 91.576530 10.248137 -0.414796
74.473740 91.576530 10.389171 -0.262703
76.414428 91.576530 10.960255 0.258417
78.355116 91.576530 11.234571 1.338422
80.295804 91.576530 11.065948 -0.075540
82.236492 91.576530 10.927069 -0.265247
84.177180 91.576530 10.589324 -0.154338
86.117868 91.576530 10.446329 -0.054661
88.058556 91.576530 10.189436 0.069926
89.999244 91.576530 10.172296 0.159897
91.939932 91.576530 10.515956 -0.145208
93.880620 91.576530 10.499537 -0.300211
95.821308 91.576530 10.287934 0.119257
97.761996 91.576530 10.493565 -0.471208
99.702684 91.576530 10.973038 -0.378505
101.643372 91.576530 10.721137 0.055473
103.584060 91.576530 10.663687 0.119494
105.524748 91.576530 10.735918 -0.062865
107.465436 91.576530 10.824558 -0.270853
109.406124 91.576530 10.809788 -0.362169
111.346812 91.576530 10.668480 -0.147609
113.287500 91.576530 10.634881 0.035461
115.228188 91.576530 10.225000 -0.455193
117.168876 91.576530 10.535250 -0.885139
119.109564 91.576530 10.987436 -0.967053
121.050252 91.576530 10.366972 -0.828630
122.990940 91.576530 9.956206 -0.566892
124.931628 91.576530 10.168620 -0.364768
126.872316 91.576530 10.312767 -0.393096
128.813004 91.576530 10.390970 -0.512630
130.753692 91.576530 10.404710 -0.716212
132.694380 91.576530 10.130171 -0.606408
134.635068 91.576530 9.909676 -0.660491
136.575756 91.576530 9.838924 -0.840046
138.516444 91.576530 10.022294 -0.365235
140.457132 91.576530 0.000000 0.000000
-55.552357 89.635842 7.487648 0.326588
-53.611669 89.635842 8.283703 0.787461
-51.670981 89.635842 9.493288 1.010633
-49.730293 89.635842 9.593588 0.319064
-47.789605 89.635842 9.639295 0.388560
-45.848917 89.635842 9.303576 1.508844
-43.908229 89.635842 9.462673 1.126087
-41.967541 89.635842 10.169421 1.164456
-40.026853 89.635842 9.631088 0.641126
-38.086165 89.635842 8.820068 0.188726
-36.145477 89.635842 0.000000 0.000000
-34.204789 89.635842 0.000000 0.000000
-32.264101 89.635842 0.000000 0.000000
-30.323413 89.635842 0.000000 0.000000
-28.382725 89.635842 0.000000 0.000000
-26.442037 89.635842 0.000000 0.000000
-24.501349 89.635842 0.000000 0.000000
-22.560661 89.635842 0.000000 0.000000
-20.619973 89.635842 0.000000 0.000000
-18.679285 89.635842 0.000000 0.000000
-16.738597 89.635842 0.000000 0.000000
-14.797909 89.635842 9.319929 0.944614
-12.857221 89.635842 9.304938 0.849946
-10.916533 89.635842 9.567436 0.888524
-8.975845 89.635842 9.892814 1.128213
-7.035157 89.635842 9.869131 1.368595
-5.094469 89.635842 10.161498 1.102477
-3.153781 89.635842 10.942645 1.225427
-1.213093 89.635842 9.646091 1.100199
0.727595 89.635842 9.261098 1.858632
2.668283 89.635842 10.129317 1.876501
4.608971 89.635842 8.577310 0.010694
6.549659 89.635842 9.506654 1.196129
8.490347 89.635842 9.433778 1.160826
10.431035 89.635842 9.798432 1.481770
12.371723 89.635842 10.143027 1.568438
14.312411 89.635842 10.479342 1.618263
16.253099 89.635842 10.406297 0.795843
18.193787 89.635842 10.250660 0.999652
20.134475 89.635842 10.088614 1.259286
22.075163 89.635842 9.953316 1.179685
24.015851 89.635842 10.231458 1.228844
25.956539 89.635842 9.232053 0.979913
27.897227 89.635842 9.336920 1.264925