TITLE = "B00068"
VARIABLES = "position", "position(2)", "Vx", "Vy"
ZONE T="Frame 0", I=102, J=78
-55.552357 103.220658 0.000000 0.000000
-53.611669 103.220658 11.187579 -0.146906
-51.670981 103.220658 10.035398 1.087256
-49.730293 103.220658 9.198447 1.506870
-47.789605 103.220658 9.424070 1.238451
-45.848917 103.220658 9.690452 1.704907
-43.908229 103.220658 9.556479 2.526135
-41.967541 103.220658 9.005913 1.348599
-40.026853 103.220658 9.086916 0.547448
-38.086165 103.220658 0.000000 0.000000
-36.145477 103.220658 0.000000 0.000000
-34.204789 103.220658 0.000000 0.000000
-32.264101 103.220658 0.000000 0.000000
-30.323413 103.220658 0.000000 0.000000
-28.382725 103.220658 0.000000 0.000000
-26.442037 103.220658 0.000000 0.000000
-24.501349 103.220658 0.000000 0.000000
-22.560661 103.220658 0.000000 0.000000
-20.619973 103.220658 0.000000 0.000000
-18.679285 103.220658 0.000000 0.000000
-16.738597 103.220658 0.000000 0.000000
-14.797909 103.220658 0.000000 0.000000
-12.857221 103.220658 9.597573 0.611519
-10.916533 103.220658 9.664308 0.806795
-8.975845 103.220658 9.877040 0.326363
-7.035157 103.220658 9.094524 -0.789128
-5.094469 103.220658 8.874179 -0.370652
-3.153781 103.220658 9.147213 0.396750
-1.213093 103.220658 9.499575 1.227425
0.727595 103.220658 9.677008 1.352350
2.668283 103.220658 9.140204 1.055536
4.608971 103.220658 9.557805 1.073702
6.549659 103.220658 10.361872 0.895829
8.490347 103.220658 9.279735 0.275938
10.431035 103.220658 9.438276 0.261024
12.371723 103.220658 9.589277 -0.213243
14.312411 103.220658 10.432095 -1.590232
16.253099 103.220658 10.513710 -1.192380
18.193787 103.220658 9.579470 3.013231
20.134475 103.220658 9.213595 3.138509
22.075163 103.220658 9.607633 2.971830
24.015851 103.220658 9.359444 2.243186
25.956539 103.220658 10.027616 1.560385
27.897227 103.220658 10.452336 0.885468
29.837915 103.220658 12.062092 -0.715691
31.778603 103.220658 11.962456 -0.527560
33.719291 103.220658 10.054615 1.028066
35.659979 103.220658 9.089575 1.711406
37.600667 103.220658 9.877522 1.075087
39.541355 103.220658 11.890461 1.712114
41.482043 103.220658 11.401821 2.117521
43.422731 103.220658 8.969333 3.353521
45.363419 103.220658 11.441582 1.412258
47.304107 103.220658 10.049980 -0.200401
49.244796 103.220658 11.096800 0.156297
51.185484 103.220658 9.869754 -1.267903
53.126172 103.220658 9.744127 -0.638232
55.066860 103.220658 11.521584 1.317669
57.007548 103.220658 0.000000 0.000000
58.948236 103.220658 0.000000 0.000000
60.888924 103.220658 0.000000 0.000000
62.829612 103.220658 0.000000 0.000000
64.770300 103.220658 0.000000 0.000000
66.710988 103.220658 10.673431 0.172391
68.651676 103.220658 11.045019 0.346129
70.592364 103.220658 10.939196 0.266095
72.533052 103.220658 10.537409 -0.504217
74.473740 103.220658 10.643043 -0.640268
76.414428 103.220658 10.518405 -0.263060
78.355116 103.220658 10.689999 -0.423225
80.295804 103.220658 10.889915 -0.858744
82.236492 103.220658 10.749224 -0.200071
84.177180 103.220658 10.633110 0.544547
86.117868 103.220658 10.381564 -0.418104
88.058556 103.220658 9.998971 0.142720
89.999244 103.220658 9.874988 0.441074
91.939932 103.220658 10.370166 -0.507439
93.880620 103.220658 10.703093 -0.361993
95.821308 103.220658 10.537024 0.119402
97.761996 103.220658 10.382024 -0.048599
99.702684 103.220658 9.691163 -0.280838
101.643372 103.220658 10.318976 -0.427946
103.584060 103.220658 10.903436 -0.320690
105.524748 103.220658 10.537064 -0.253598
107.465436 103.220658 10.135789 -0.771257
109.406124 103.220658 10.499202 -0.659077
111.346812 103.220658 10.858621 0.215388
113.287500 103.220658 10.061503 0.451189
115.228188 103.220658 9.732778 -0.074718
117.168876 103.220658 9.826885 -0.131844
119.109564 103.220658 9.911949 -0.109701
121.050252 103.220658 10.387469 0.046890
122.990940 103.220658 10.057306 0.000329
124.931628 103.220658 10.207763 -0.399484
126.872316 103.220658 10.224094 -1.285934
128.813004 103.220658 9.998306 -0.897903
130.753692 103.220658 10.193257 -0.160508
132.694380 103.220658 10.594930 0.285633
134.635068 103.220658 10.433286 -0.220882
136.575756 103.220658 10.120742 -1.441261
138.516444 103.220658 9.917839 -1.811595
140.457132 103.220658 0.000000 0.000000
-55.552357 101.279970 11.600073 -0.406671
-53.611669 101.279970 11.099847 -0.047553
-51.670981 101.279970 10.036834 0.354442
-49.730293 101.279970 8.941255 0.937464
-47.789605 101.279970 9.135180 0.894911
-45.848917 101.279970 8.974268 1.129353
-43.908229 101.279970 8.990903 1.058417
-41.967541 101.279970 9.039428 0.532967
-40.026853 101.279970 9.291885 0.425947
-38.086165 101.279970 0.000000 0.000000
-36.145477 101.279970 0.000000 0.000000
-34.204789 101.279970 0.000000 0.000000
-32.264101 101.279970 0.000000 0.000000
-30.323413 101.279970 0.000000 0.000000
-28.382725 101.279970 0.000000 0.000000
-26.442037 101.279970 0.000000 0.000000
-24.501349 101.279970 0.000000 0.000000
-22.560661 101.279970 0.000000 0.000000
-20.619973 101.279970 0.000000 0.000000
-18.679285 101.279970 0.000000 0.000000
-16.738597 101.279970 0.000000 0.000000
-14.797909 101.279970 9.858414 0.616377
-12.857221 101.279970 9.777628 0.771734
-10.916533 101.279970 9.697978 0.817144
-8.975845 101.279970 9.416225 0.361760
-7.035157 101.279970 8.981824 0.078620
-5.094469 101.279970 9.576943 0.103223
-3.153781 101.279970 9.196259 0.348871
-1.213093 101.279970 9.589172 0.606986
0.727595 101.279970 9.757135 0.935053
2.668283 101.279970 9.611666 1.698093
4.608971 101.279970 9.686988 1.709020
6.549659 101.279970 10.242826 0.937129
8.490347 101.279970 10.283352 0.054362
10.431035 101.279970 10.254958 -0.467038
12.371723 101.279970 10.452591 -1.018959
14.312411 101.279970 10.872101 -1.770800
16.253099 101.279970 0.000000 0.000000
18.193787 101.279970 10.056749 1.995067
20.134475 101.279970 10.393269 2.039142
22.075163 101.279970 10.145184 1.798626
24.015851 101.279970 9.101181 1.443030
25.956539 101.279970 9.592016 1.390744
27.897227 101.279970 10.319450 0.395220
29.837915 101.279970 10.751915 -0.705730
31.778603 101.279970 11.916012 -0.355511
33.719291 101.279970 0.000000 0.000000
35.659979 101.279970 9.344460 1.718850
37.600667 101.279970 9.642305 1.327430
39.541355 101.279970 11.375319 1.698889
41.482043 101.279970 10.878189 0.972464
43.422731 101.279970 10.761807 0.516909
45.363419 101.279970 10.749811 0.322488
47.304107 101.279970 10.673058 -0.463575
49.244796 101.279970 10.703432 -0.566468
51.185484 101.279970 11.218157 0.163380
53.126172 101.279970 8.940335 1.116197
55.066860 101.279970 10.582438 2.145654
57.007548 101.279970 0.000000 0.000000
58.948236 101.279970 0.000000 0.000000
60.888924 101.279970 0.000000 0.000000
62.829612 101.279970 0.000000 0.000000
64.770300 101.279970 0.000000 0.000000
66.710988 101.279970 10.776449 0.022606
68.651676 101.279970 10.945532 0.111607
70.592364 101.279970 10.706042 0.286819
72.533052 101.279970 10.644230 -0.076544
74.473740 101.279970 10.479679 -0.173716
76.414428 101.279970 9.977220 -0.229076
78.355116 101.279970 10.133047 -0.106670
80.295804 101.279970 10.793274 -0.105797
82.236492 101.279970 10.920787 -0.160804
84.177180 101.279970 11.092745 -0.232909
86.117868 101.279970 10.952659 -0.806404
88.058556 101.279970 10.330302 0.126173
89.999244 101.279970 10.362202 0.107614
91.939932 101.279970 10.530934 -0.470585
93.880620 101.279970 10.597553 -0.445252
95.821308 101.279970 10.526314 0.154391
97.761996 101.279970 10.278709 0.290319
99.702684 101.279970 9.972139 -0.152133
101.643372 101.279970 10.340860 -0.302528
103.584060 101.279970 10.816398 -0.089109
105.524748 101.279970 10.381512 0.012042
107.465436 101.279970 10.157063 -0.595962
109.406124 101.279970 10.486792 -0.506660
111.346812 101.279970 10.386869 -0.189346
113.287500 101.279970 10.132581 -0.117716
115.228188 101.279970 10.141906 -0.078768
117.168876 101.279970 10.090090 -0.149445
119.109564 101.279970 10.017713 0.019640
121.050252 101.279970 10.066277 0.119763
122.990940 101.279970 10.141885 -0.244428
124.931628 101.279970 10.442233 -0.558187
126.872316 101.279970 10.828181 -0.757759
128.813004 101.279970 10.419932 -0.630926
130.753692 101.279970 10.300735 -0.032222
132.694380 101.279970 10.432137 0.458145
134.635068 101.279970 10.038363 -0.389371
136.575756 101.279970 9.382589 -1.689124
138.516444 101.279970 8.740361 -1.016568
140.457132 101.279970 0.000000 0.000000
-55.552357 99.339282 10.776752 0.589706
-53.611669 99.339282 10.505170 0.397058
-51.670981 99.339282 9.818481 0.315455
-49.730293 99.339282 8.866500 0.779806
-47.789605 99.339282 8.829572 0.769130
-45.848917 99.339282 8.900453 0.648928
-43.908229 99.339282 9.097616 0.719335
-41.967541 99.339282 9.305217 0.739575
-40.026853 99.339282 9.451975 0.747131
-38.086165 99.339282 0.000000 0.000000
-36.145477 99.339282 0.000000 0.000000
-34.204789 99.339282 0.000000 0.000000
-32.264101 99.339282 0.000000 0.000000
-30.323413 99.339282 0.000000 0.000000
-28.382725 99.339282 0.000000 0.000000
-26.442037 99.339282 0.000000 0.000000
-24.501349 99.339282 0.000000 0.000000
-22.560661 99.339282 0.000000 0.000000
-20.619973 99.339282 0.000000 0.000000
-18.679285 99.339282 0.000000 0.000000
-16.738597 99.339282 0.000000 0.000000
-14.797909 99.339282 9.845902 0.912628
-12.857221 99.339282 9.938481 0.968503
-10.916533 99.339282 9.835036 0.731930
-8.975845 99.339282 9.819911 0.263450
-7.035157 99.339282 10.078321 -0.115893
-5.094469 99.339282 9.984765 0.304742
-3.153781 99.339282 9.500248 0.419564
-1.213093 99.339282 10.613985 -1.049345
0.727595 99.339282 10.024680 0.157563
2.668283 99.339282 9.839131 1.273572
4.608971 99.339282 9.211387 0.882110
6.549659 99.339282 10.392559 1.184579
8.490347 99.339282 10.812764 0.296591
10.431035 99.339282 10.371781 -1.257259
12.371723 99.339282 11.403185 -0.632953
14.312411 99.339282 0.000000 0.000000
16.253099 99.339282 10.598749 0.076368
18.193787 99.339282 10.994584 0.438331
20.134475 99.339282 11.496490 0.658565
22.075163 99.339282 10.759341 0.423424
24.015851 99.339282 8.822388 0.386931
25.956539 99.339282 9.784865 0.774586
27.897227 99.339282 10.068483 2.224601
29.837915 99.339282 9.395590 1.014908
31.778603 99.339282 10.063680 0.355047
33.719291 99.339282 11.005521 0.644364
35.659979 99.339282 10.148851 1.383523
37.600667 99.339282 9.362718 1.787555
39.541355 99.339282 9.815431 0.861424
41.482043 99.339282 10.268120 0.633139
43.422731 99.339282 10.427781 0.706136
45.363419 99.339282 10.555189 0.209705
47.304107 99.339282 9.773257 -1.062978
49.244796 99.339282 9.978691 -1.260130
51.185484 99.339282 9.417095 0.088050
53.126172 99.339282 9.280392 1.089200
55.066860 99.339282 11.780627 0.009842
57.007548 99.339282 0.000000 0.000000
58.948236 99.339282 0.000000 0.000000
60.888924 99.339282 0.000000 0.000000
62.829612 99.339282 0.000000 0.000000
64.770300 99.339282 0.000000 0.000000
66.710988 99.339282 10.771907 0.146075
68.651676 99.339282 10.733813 -0.075887
70.592364 99.339282 10.391742 -0.042315
72.533052 99.339282 10.572755 1.156748
74.473740 99.339282 10.471171 0.745855
76.414428 99.339282 9.548537 -0.086060
78.355116 99.339282 10.101759 0.168441
80.295804 99.339282 11.047496 0.316936
82.236492 99.339282 10.925447 0.044777
84.177180 99.339282 11.137313 -0.000716
86.117868 99.339282 11.404637 -0.486101
88.058556 99.339282 10.781750 -0.218206
89.999244 99.339282 10.486633 -0.142406
91.939932 99.339282 10.336345 -0.526135
93.880620 99.339282 10.601678 -1.242919
95.821308 99.339282 10.542098 -0.208994
97.761996 99.339282 10.010777 0.420757
99.702684 99.339282 10.143138 0.107160
101.643372 99.339282 10.483475 -0.051370
103.584060 99.339282 10.454713 -0.022223
105.524748 99.339282 10.384536 -0.224849
107.465436 99.339282 10.307955 -0.212840
109.406124 99.339282 10.549805 -0.266621
111.346812 99.339282 10.122300 -0.295169
113.287500 99.339282 10.032796 -0.516488
115.228188 99.339282 10.545664 -0.681798
117.168876 99.339282 10.531334 -0.352958
119.109564 99.339282 10.287334 -0.027566
121.050252 99.339282 10.154052 -0.128717
122.990940 99.339282 10.499806 -0.526908
124.931628 99.339282 10.945722 -0.606050
126.872316 99.339282 10.577161 -0.432516
128.813004 99.339282 10.407003 -0.353984
130.753692 99.339282 10.441607 -0.187080
132.694380 99.339282 10.064642 0.056133
134.635068 99.339282 9.755213 -0.398343
136.575756 99.339282 9.530625 -0.650686
138.516444 99.339282 9.371756 -0.609824
140.457132 99.339282 0.000000 0.000000
-55.552357 97.398594 9.672483 0.491772
-53.611669 97.398594 9.077404 0.553819
-51.670981 97.398594 8.652256 0.861261
-49.730293 97.398594 8.761563 0.963939
-47.789605 97.398594 8.589453 0.914864
-45.848917 97.398594 9.212530 0.767227
-43.908229 97.398594 9.592986 1.119547
-41.967541 97.398594 9.292798 1.600367
-40.026853 97.398594 9.561904 1.273449
-38.086165 97.398594 0.000000 0.000000
-36.145477 97.398594 0.000000 0.000000
-34.204789 97.398594 0.000000 0.000000
-32.264101 97.398594 0.000000 0.000000
-30.323413 97.398594 0.000000 0.000000
-28.382725 97.398594 0.000000 0.000000
-26.442037 97.398594 0.000000 0.000000
-24.501349 97.398594 0.000000 0.000000
-22.560661 97.398594 0.000000 0.000000
-20.619973 97.398594 0.000000 0.000000
-18.679285 97.398594 0.000000 0.000000
-16.738597 97.398594 0.000000 0.000000
-14.797909 97.398594 9.639277 0.786531
-12.857221 97.398594 9.793662 1.034863
-10.916533 97.398594 9.996709 1.016448
-8.975845 97.398594 9.886245 0.609977
-7.035157 97.398594 9.800967 0.445933
-5.094469 97.398594 9.869446 0.828221
-3.153781 97.398594 9.999115 0.951647
-1.213093 97.398594 9.810469 2.588903
0.727595 97.398594 9.811685 -1.092256
2.668283 97.398594 9.874658 0.571712
4.608971 97.398594 9.722131 1.054700
6.549659 97.398594 10.207230 1.260683
8.490347 97.398594 10.268926 0.506635
10.431035 97.398594 10.559854 0.196724
12.371723 97.398594 11.339502 0.173861
14.312411 97.398594 10.855645 -0.856955
16.253099 97.398594 11.001574 -0.676930
18.193787 97.398594 11.463799 -0.265865
20.134475 97.398594 11.707699 -0.162692
22.075163 97.398594 11.450936 0.452864
24.015851 97.398594 9.108260 0.197237
25.956539 97.398594 9.246288 0.772909
27.897227 97.398594 10.034764 1.579044
29.837915 97.398594 9.904629 1.483458
31.778603 97.398594 10.367414 0.423338
33.719291 97.398594 10.779531 0.221378
35.659979 97.398594 10.240636 -0.756937
37.600667 97.398594 10.494874 -0.944987
39.541355 97.398594 10.207698 -0.742641
41.482043 97.398594 10.030047 0.624149
43.422731 97.398594 10.244576 1.732592
45.363419 97.398594 9.578058 1.196626
47.304107 97.398594 10.117414 -0.249567
49.244796 97.398594 10.352738 0.133429
51.185484 97.398594 10.628602 0.473455
53.126172 97.398594 11.104150 0.066844
55.066860 97.398594 11.157248 1.160764
57.007548 97.398594 12.081264 -0.076871
58.948236 97.398594 0.000000 0.000000
60.888924 97.398594 0.000000 0.000000
62.829612 97.398594 0.000000 0.000000
64.770300 97.398594 0.000000 0.000000
66.710988 97.398594 11.897246 -0.953748
68.651676 97.398594 9.513069 0.374182
70.592364 97.398594 9.855446 -0.017815
72.533052 97.398594 10.512123 0.710809
74.473740 97.398594 10.526985 0.807047
76.414428 97.398594 10.145271 -0.030359
78.355116 97.398594 10.545562 -0.298146
80.295804 97.398594 11.104052 -0.155161
82.236492 97.398594 10.737690 -0.003893
84.177180 97.398594 10.811075 0.226360
86.117868 97.398594 10.931012 0.064355
88.058556 97.398594 10.888543 0.103456
89.999244 97.398594 10.509595 -0.048332
91.939932 97.398594 10.628178 -0.308472
93.880620 97.398594 10.916211 -0.712658
95.821308 97.398594 10.233709 -0.467144
97.761996 97.398594 10.033657 0.014422
99.702684 97.398594 10.759348 0.029145
101.643372 97.398594 10.695935 -0.109546
103.584060 97.398594 10.299436 -0.159724
105.524748 97.398594 10.331065 -0.296201
107.465436 97.398594 10.564972 -0.270995
109.406124 97.398594 10.488253 -0.089018
111.346812 97.398594 10.187547 -0.047667
113.287500 97.398594 10.171335 -0.414380
115.228188 97.398594 10.518358 -0.667203
117.168876 97.398594 10.722128 -0.227916
119.109564 97.398594 10.493976 0.086250
121.050252 97.398594 10.511349 -0.280047
122.990940 97.398594 10.927834 -0.604295
124.931628 97.398594 10.987326 -0.571789
126.872316 97.398594 10.489249 -0.597134
128.813004 97.398594 10.113875 -0.467303
130.753692 97.398594 10.073106 -0.323944
132.694380 97.398594 10.062430 -0.403690
134.635068 97.398594 10.098749 -0.477061
136.575756 97.398594 10.150309 -0.395756
138.516444 97.398594 10.278668 -0.325357
140.457132 97.398594 0.000000 0.000000
-55.552357 95.457906 9.159078 0.232196
-53.611669 95.457906 8.669565 0.901472
-51.670981 95.457906 8.304486 1.553900
-49.730293 95.457906 8.870231 1.214370
-47.789605 95.457906 9.282252 1.087161
-45.848917 95.457906 9.518875 1.061238
-43.908229 95.457906 9.415170 1.137827
-41.967541 95.457906 9.014601 1.166611
-40.026853 95.457906 9.219450 1.048728
-38.086165 95.457906 9.554270 1.099517
-36.145477 95.457906 0.000000 0.000000
-34.204789 95.457906 0.000000 0.000000
-32.264101 95.457906 0.000000 0.000000
-30.323413 95.457906 0.000000 0.000000
-28.382725 95.457906 0.000000 0.000000
-26.442037 95.457906 0.000000 0.000000
-24.501349 95.457906 0.000000 0.000000
-22.560661 95.457906 0.000000 0.000000
-20.619973 95.457906 0.000000 0.000000
-18.679285 95.457906 0.000000 0.000000
-16.738597 95.457906 0.000000 0.000000
-14.797909 95.457906 9.267722 0.973226
-12.857221 95.457906 9.484113 1.196003
-10.916533 95.457906 9.920562 0.838695
-8.975845 95.457906 9.891232 0.713553
-7.035157 95.457906 9.738697 1.001706
-5.094469 95.457906 9.707829 1.207509
-3.153781 95.457906 9.450040 1.150477
-1.213093 95.457906 9.569468 0.684975
0.727595 95.457906 10.128918 0.363818
2.668283 95.457906 9.819201 0.971298
4.608971 95.457906 9.637926 1.406963
6.549659 95.457906 9.632729 1.548314
8.490347 95.457906 9.783790 1.331556
10.431035 95.457906 9.818642 0.791525
12.371723 95.457906 10.390112 0.542534
14.312411 95.457906 10.673157 0.027008
16.253099 95.457906 10.470079 0.169580
18.193787 95.457906 10.756886 0.012113
20.134475 95.457906 11.040149 -0.168124
22.075163 95.457906 10.994348 0.376622
24.015851 95.457906 8.705477 0.913504
25.956539 95.457906 8.879133 1.280025
27.897227 95.457906 10.296688 1.052788
29.837915 95.457906 10.403619 0.428612
31.778603 95.457906 10.802529 -0.042711
33.719291 95.457906 0.000000 0.000000
35.659979 95.457906 11.221277 0.986861
37.600667 95.457906 11.014792 0.453818
39.541355 95.457906 10.967873 0.036295
41.482043 95.457906 10.385363 -0.078424
43.422731 95.457906 10.485345 0.848071
45.363419 95.457906 10.429647 1.257437
47.304107 95.457906 10.529180 0.818693
49.244796 95.457906 10.998213 0.719731
51.185484 95.457906 11.306931 1.016856
53.126172 95.457906 11.402907 0.639105
55.066860 95.457906 11.135871 -0.202135
57.007548 95.457906 10.821025 -0.125917
58.948236 95.457906 0.000000 0.000000
60.888924 95.457906 0.000000 0.000000
62.829612 95.457906 0.000000 0.000000
64.770300 95.457906 11.434280 0.782903
66.710988 95.457906 10.774778 0.430917
68.651676 95.457906 10.491106 0.022944
70.592364 95.457906 10.301000 0.019694
72.533052 95.457906 10.530272 0.317166
74.473740 95.457906 10.773713 0.249859
76.414428 95.457906 10.577825 0.137154
78.355116 95.457906 10.591920 -0.028103
80.295804 95.457906 10.910720 -0.229969
82.236492 95.457906 11.176500 0.360581
84.177180 95.457906 11.062441 0.150396
86.117868 95.457906 10.927172 0.170642
88.058556 95.457906 10.959673 0.217432
89.999244 95.457906 10.626623 -0.016864
91.939932 95.457906 10.469955 -0.193837
93.880620 95.457906 10.378914 -0.279490
95.821308 95.457906 10.523223 -0.497994
97.761996 95.457906 10.707180 -0.367549
99.702684 95.457906 10.986494 -0.389752
101.643372 95.457906 10.506082 -0.357686
103.584060 95.457906 10.280560 -0.276182
105.524748 95.457906 10.547223 -0.445211
107.465436 95.457906 10.585459 -0.658250
109.406124 95.457906 10.225765 -0.370508
111.346812 95.457906 10.232080 -0.023085
113.287500 95.457906 10.319808 -0.155973
115.228188 95.457906 10.379869 -0.179105
117.168876 95.457906 10.499987 -0.112651
119.109564 95.457906 10.561608 -0.231633
121.050252 95.457906 10.701859 -0.291391
122.990940 95.457906 10.772903 -0.490526
124.931628 95.457906 10.949573 -0.544835
126.872316 95.457906 10.709911 -0.443482
128.813004 95.457906 10.137750 -0.312852
130.753692 95.457906 9.827638 -0.367148
132.694380 95.457906 9.988910 -0.417022
134.635068 95.457906 10.107738 -0.574028
136.575756 95.457906 10.446670 -0.814168
138.516444 95.457906 10.584661 -0.466115
140.457132 95.457906 0.000000 0.000000
-55.552357 93.517218 0.000000 0.000000
-53.611669 93.517218 0.000000 0.000000
-51.670981 93.517218 8.884349 1.957872
-49.730293 93.517218 9.141484 1.528791
-47.789605 93.517218 10.256768 0.725463
-45.848917 93.517218 9.614127 1.300086
-43.908229 93.517218 8.845943 0.489634
-41.967541 93.517218 9.087454 0.229190
-40.026853 93.517218 8.854204 0.385762
-38.086165 93.517218 9.198485 0.361915
-36.145477 93.517218 0.000000 0.000000
-34.204789 93.517218 0.000000 0.000000
-32.264101 93.517218 0.000000 0.000000
-30.323413 93.517218 0.000000 0.000000
-28.382725 93.517218 0.000000 0.000000
-26.442037 93.517218 0.000000 0.000000
-24.501349 93.517218 0.000000 0.000000
-22.560661 93.517218 0.000000 0.000000
-20.619973 93.517218 0.000000 0.000000
-18.679285 93.517218 0.000000 0.000000
-16.738597 93.517218 0.000000 0.000000
-14.797909 93.517218 9.218270 1.523259
-12.857221 93.517218 9.527286 1.154872
-10.916533 93.517218 9.798831 0.510551
-8.975845 93.517218 9.863579 0.766411
-7.035157 93.517218 9.674956 1.099465
-5.094469 93.517218 9.375988 1.370288
-3.153781 93.517218 9.213757 1.204836
-1.213093 93.517218 9.131924 0.108431
0.727595 93.517218 10.264181 0.275284
2.668283 93.517218 9.620919 1.571017
4.608971 93.517218 12.011272 1.944189
6.549659 93.517218 9.402779 1.918142
8.490347 93.517218 8.725884 -1.411351
10.431035 93.517218 8.625507 0.651669
12.371723 93.517218 9.652980 0.862553
14.312411 93.517218 10.043338 1.472829
16.253099 93.517218 9.199263 1.284492
18.193787 93.517218 9.281021 1.209514
20.134475 93.517218 10.257852 1.210526
22.075163 93.517218 9.704908 0.870988
24.015851 93.517218 8.842282 0.969384
25.956539 93.517218 9.452969 1.572491
27.897227 93.517218 10.872943 0.980163
29.837915 93.517218 10.521403 0.954858
31.778603 93.517218 10.651407 0.298536
33.719291 93.517218 11.564943 0.991143
35.659979 93.517218 11.833513 1.546119
37.600667 93.517218 11.201885 1.245317
39.541355 93.517218 10.942251 0.748092
41.482043 93.517218 11.051841 0.345643
43.422731 93.517218 11.631740 0.182638
45.363419 93.517218 11.211392 0.980965
47.304107 93.517218 10.904327 1.342045
49.244796 93.517218 11.117724 0.929481
51.185484 93.517218 11.031106 0.822791
53.126172 93.517218 10.731247 0.796295
55.066860 93.517218 11.127501 0.143366
57.007548 93.517218 10.714156 0.263990
58.948236 93.517218 0.000000 0.000000
60.888924 93.517218 0.000000 0.000000
62.829612 93.517218 0.000000 0.000000
64.770300 93.517218 11.327848 1.143509
66.710988 93.517218 11.019327 0.487606
68.651676 93.517218 11.193614 0.156775
70.592364 93.517218 10.979841 -0.070535
72.533052 93.517218 10.685730 0.116205
74.473740 93.517218 10.955314 -0.104401
76.414428 93.517218 11.006383 0.033528
78.355116 93.517218 10.508011 0.222867
80.295804 93.517218 10.598132 -0.090298
82.236492 93.517218 11.462507 0.340518
84.177180 93.517218 11.226854 1.212006
86.117868 93.517218 11.015631 0.258883
88.058556 93.517218 10.957766 0.208596
89.999244 93.517218 10.407469 -0.152651
91.939932 93.517218 10.169991 -0.648421
93.880620 93.517218 10.139185 -1.361653
95.821308 93.517218 10.913259 -1.078045
97.761996 93.517218 10.755328 -0.584351
99.702684 93.517218 10.797592 -0.688180
101.643372 93.517218 10.230972 -0.719037
103.584060 93.517218 10.091719 -0.635966
105.524748 93.517218 10.903286 -0.890995
107.465436 93.517218 10.740216 -0.867399
109.406124 93.517218 10.175908 -0.732574
111.346812 93.517218 10.258112 -0.257865
113.287500 93.517218 10.343919 -0.338055
115.228188 93.517218 10.381334 -0.283296
117.168876 93.517218 10.376395 -0.204280
119.109564 93.517218 10.510000 -0.410228
121.050252 93.517218 10.399034 -0.549735
122.990940 93.517218 10.129270 -0.677922
124.931628 93.517218 10.517156 -0.509570
126.872316 93.517218 10.648839 -0.248054
128.813004 93.517218 10.199641 -0.308313
130.753692 93.517218 9.929627 -0.604079
132.694380 93.517218 9.987501 -0.258069
134.635068 93.517218 10.145503 -0.131589
136.575756 93.517218 10.232970 -0.672521
138.516444 93.517218 10.314026 -0.680850
140.457132 93.517218 0.000000 0.000000
-55.552357 91.576530 0.000000 0.000000
-53.611669 91.576530 8.846001 1.905563
-51.670981 91.576530 9.324074 1.899651
-49.730293 91.576530 9.523963 1.602929
-47.789605 91.576530 9.658293 1.918356
-45.848917 91.576530 8.355059 0.711824
-43.908229 91.576530 8.749839 0.614767
-41.967541 91.576530 9.047025 0.384138
-40.026853 91.576530 9.020300 0.174632
-38.086165 91.576530 9.211586 0.051079
-36.145477 91.576530 0.000000 0.000000
-34.204789 91.576530 0.000000 0.000000
-32.264101 91.576530 0.000000 0.000000
-30.323413 91.576530 0.000000 0.000000
-28.382725 91.576530 0.000000 0.000000
-26.442037 91.576530 0.000000 0.000000
-24.501349 91.576530 0.000000 0.000000
-22.560661 91.576530 0.000000 0.000000
-20.619973 91.576530 0.000000 0.000000
-18.679285 91.576530 0.000000 0.000000
-16.738597 91.576530 0.000000 0.000000
-14.797909 91.576530 9.699499 1.456802
-12.857221 91.576530 9.996801 0.834628
-10.916533 91.576530 9.850074 0.479538
-8.975845 91.576530 9.381422 0.930124
-7.035157 91.576530 8.866026 1.323675
-5.094469 91.576530 8.869409 1.222042
-3.153781 91.576530 8.869911 0.565322
-1.213093 91.576530 9.357120 -0.520977
0.727595 91.576530 10.022683 -0.374008
2.668283 91.576530 9.923552 0.417882
4.608971 91.576530 9.403367 1.344027
6.549659 91.576530 9.375240 1.124388
8.490347 91.576530 9.792033 0.738232
10.431035 91.576530 9.548182 0.896790
12.371723 91.576530 9.670292 0.947625
14.312411 91.576530 9.766773 1.467552
16.253099 91.576530 9.044906 1.894750
18.193787 91.576530 9.602101 2.049338
20.134475 91.576530 10.150816 2.534447
22.075163 91.576530 9.801112 1.716101
24.015851 91.576530 9.210016 1.185358
25.956539 91.576530 9.393716 1.413848
27.897227 91.576530 10.103640 2.643717
29.837915 91.576530 10.147006 1.303486
31.778603 91.576530 10.283866 0.418902
33.719291 91.576530 10.522259 0.577041
35.659979 91.576530 10.899977 0.947151
37.600667 91.576530 10.993546 0.848850
39.541355 91.576530 10.399055 0.832188
41.482043 91.576530 10.369756 0.559480
43.422731 91.576530 10.319421 0.528359
45.363419 91.576530 10.555596 0.565111
47.304107 91.576530 10.966973 0.895641
49.244796 91.576530 10.835461 1.036876
51.185484 91.576530 10.463617 0.681881
53.126172 91.576530 10.400490 0.732369
55.066860 91.576530 10.926701 0.658827
57.007548 91.576530 11.281884 0.369231
58.948236 91.576530 0.000000 0.000000
60.888924 91.576530 0.000000 0.000000
62.829612 91.576530 0.000000 0.000000
64.770300 91.576530 10.613852 0.526997
66.710988 91.576530 10.570871 0.163487
68.651676 91.576530 10.795055 0.015934
70.592364 91.576530 10.948576 0.257254
72.533052 91.576530 10.796350 0.400604
74.473740 91.576530 10.966364 0.124737
76.414428 91.576530 11.270000 -0.037478
78.355116 91.576530 10.877327 0.174440
80.295804 91.576530 11.047023 -0.173216
82.236492 91.576530 11.475154 0.083173
84.177180 91.576530 11.045804 0.109676
86.117868 91.576530 10.804661 0.227458
88.058556 91.576530 10.957582 -0.099538
89.999244 91.576530 10.639756 -0.532094
91.939932 91.576530 10.345492 -0.981781
93.880620 91.576530 10.546609 -1.224598
95.821308 91.576530 10.607175 -0.752299
97.761996 91.576530 10.515129 -0.647825
99.702684 91.576530 10.539692 -0.828905
101.643372 91.576530 10.461029 -0.961188
103.584060 91.576530 10.209908 -0.811874
105.524748 91.576530 10.482174 -0.934416
107.465436 91.576530 11.102420 -0.759047
109.406124 91.576530 10.475734 -0.467642
111.346812 91.576530 10.215024 -0.515624
113.287500 91.576530 10.468114 -0.807042
115.228188 91.576530 10.420529 -0.758579
117.168876 91.576530 10.433323 -0.533051
119.109564 91.576530 10.473218 -0.470434
121.050252 91.576530 10.076502 -0.471191
122.990940 91.576530 9.931532 -0.486778
124.931628 91.576530 10.180446 -0.317525
126.872316 91.576530 10.461232 -0.439546
128.813004 91.576530 10.400673 -0.655488
130.753692 91.576530 10.217852 -0.823329
132.694380 91.576530 10.268144 -0.360869
134.635068 91.576530 10.264553 -0.098911
136.575756 91.576530 9.880569 -0.676904
138.516444 91.576530 9.912184 -0.874816
140.457132 91.576530 0.000000 0.000000
-55.552357 89.635842 7.462964 2.143460
-53.611669 89.635842 8.365881 1.832750
-51.670981 89.635842 9.419021 1.598397
-49.730293 89.635842 10.385575 -0.320994
-47.789605 89.635842 8.020802 0.300043
-45.848917 89.635842 8.892170 1.332588
-43.908229 89.635842 9.345871 0.515135
-41.967541 89.635842 9.201938 0.420449
-40.026853 89.635842 9.282015 0.414483
-38.086165 89.635842 0.000000 0.000000
-36.145477 89.635842 0.000000 0.000000
-34.204789 89.635842 0.000000 0.000000
-32.264101 89.635842 0.000000 0.000000
-30.323413 89.635842 0.000000 0.000000
-28.382725 89.635842 0.000000 0.000000
-26.442037 89.635842 0.000000 0.000000
-24.501349 89.635842 0.000000 0.000000
-22.560661 89.635842 0.000000 0.000000
-20.619973 89.635842 0.000000 0.000000
-18.679285 89.635842 0.000000 0.000000
-16.738597 89.635842 0.000000 0.000000
-14.797909 89.635842 9.865713 0.901910
-12.857221 89.635842 9.930515 1.021525
-10.916533 89.635842 10.289287 0.689436
-8.975845 89.635842 9.343069 0.686445
-7.035157 89.635842 9.269776 1.115679
-5.094469 89.635842 9.362516 1.089472
-3.153781 89.635842 9.232475 1.083117
-1.213093 89.635842 9.333714 0.863371
0.727595 89.635842 10.072308 0.567834
2.668283 89.635842 9.901671 0.545210
4.608971 89.635842 9.890195 0.725799
6.549659 89.635842 9.772400 1.032050
8.490347 89.635842 9.888486 1.062689
10.431035 89.635842 10.069407 1.265013
12.371723 89.635842 9.833937 0.992065
14.312411 89.635842 9.801954 1.304613
16.253099 89.635842 10.314424 2.449613
18.193787 89.635842 10.636753 1.847354
20.134475 89.635842 10.494023 1.687011
22.075163 89.635842 10.600074 1.737302
24.015851 89.635842 9.958501 1.156049