TITLE = "B00059"
VARIABLES = "position", "position(2)", "Vx", "Vy"
ZONE T="Frame 0", I=102, J=78
-55.552357 103.220658 0.000000 0.000000
-53.611669 103.220658 9.513621 0.667431
-51.670981 103.220658 9.385323 0.023292
-49.730293 103.220658 9.178696 0.785681
-47.789605 103.220658 9.482072 0.962343
-45.848917 103.220658 8.197384 0.493007
-43.908229 103.220658 7.865579 -0.047901
-41.967541 103.220658 9.026173 -0.185853
-40.026853 103.220658 8.812003 2.076006
-38.086165 103.220658 0.000000 0.000000
-36.145477 103.220658 0.000000 0.000000
-34.204789 103.220658 0.000000 0.000000
-32.264101 103.220658 0.000000 0.000000
-30.323413 103.220658 0.000000 0.000000
-28.382725 103.220658 0.000000 0.000000
-26.442037 103.220658 0.000000 0.000000
-24.501349 103.220658 0.000000 0.000000
-22.560661 103.220658 0.000000 0.000000
-20.619973 103.220658 0.000000 0.000000
-18.679285 103.220658 0.000000 0.000000
-16.738597 103.220658 0.000000 0.000000
-14.797909 103.220658 0.000000 0.000000
-12.857221 103.220658 9.777278 0.708497
-10.916533 103.220658 9.996689 0.707791
-8.975845 103.220658 10.191473 0.487714
-7.035157 103.220658 9.321907 0.483201
-5.094469 103.220658 8.416852 1.327131
-3.153781 103.220658 8.728765 1.826286
-1.213093 103.220658 10.045747 0.718663
0.727595 103.220658 8.657250 2.837514
2.668283 103.220658 9.886855 1.828817
4.608971 103.220658 8.857887 2.154128
6.549659 103.220658 8.920113 1.541393
8.490347 103.220658 9.805950 0.621675
10.431035 103.220658 10.130042 1.374150
12.371723 103.220658 10.918822 1.863902
14.312411 103.220658 12.245050 0.347252
16.253099 103.220658 12.426466 1.369192
18.193787 103.220658 11.138414 1.312598
20.134475 103.220658 11.327234 0.179565
22.075163 103.220658 12.090948 1.542228
24.015851 103.220658 11.099386 -0.091273
25.956539 103.220658 9.622318 0.101030
27.897227 103.220658 8.601040 0.132328
29.837915 103.220658 8.928532 0.308196
31.778603 103.220658 9.141903 2.035639
33.719291 103.220658 9.167093 2.962032
35.659979 103.220658 9.618828 2.933508
37.600667 103.220658 10.936711 1.732342
39.541355 103.220658 12.590416 1.655028
41.482043 103.220658 8.947632 2.250182
43.422731 103.220658 0.000000 0.000000
45.363419 103.220658 11.294528 0.686431
47.304107 103.220658 11.252294 -0.706562
49.244796 103.220658 12.260242 0.618709
51.185484 103.220658 12.474452 0.092441
53.126172 103.220658 10.682318 -0.176437
55.066860 103.220658 9.946719 0.725543
57.007548 103.220658 0.000000 0.000000
58.948236 103.220658 0.000000 0.000000
60.888924 103.220658 0.000000 0.000000
62.829612 103.220658 0.000000 0.000000
64.770300 103.220658 0.000000 0.000000
66.710988 103.220658 9.116130 0.493271
68.651676 103.220658 9.908626 0.336786
70.592364 103.220658 10.664629 0.777939
72.533052 103.220658 11.359847 1.210711
74.473740 103.220658 11.525134 0.770960
76.414428 103.220658 10.100331 -0.065138
78.355116 103.220658 10.082519 -0.447765
80.295804 103.220658 10.794176 -0.235170
82.236492 103.220658 10.534060 0.035031
84.177180 103.220658 10.756742 0.285858
86.117868 103.220658 10.998458 0.041752
88.058556 103.220658 10.881977 0.107808
89.999244 103.220658 10.034022 0.643565
91.939932 103.220658 9.803872 0.297605
93.880620 103.220658 9.749623 -0.755701
95.821308 103.220658 10.048123 -0.623043
97.761996 103.220658 10.400720 0.084848
99.702684 103.220658 10.329609 -0.033538
101.643372 103.220658 10.345983 -0.325359
103.584060 103.220658 10.447613 -0.264469
105.524748 103.220658 9.633090 -0.138365
107.465436 103.220658 9.411710 0.208596
109.406124 103.220658 10.039695 0.044590
111.346812 103.220658 9.850958 -0.179205
113.287500 103.220658 10.045022 -0.132811
115.228188 103.220658 10.599850 0.019910
117.168876 103.220658 10.668158 0.067672
119.109564 103.220658 10.243767 -0.264758
121.050252 103.220658 10.278454 -0.058095
122.990940 103.220658 10.398784 -0.145342
124.931628 103.220658 10.418165 -0.049132
126.872316 103.220658 10.450072 0.360871
128.813004 103.220658 10.427593 0.285457
130.753692 103.220658 10.919710 0.080790
132.694380 103.220658 10.687855 -0.235788
134.635068 103.220658 10.019205 -0.505054
136.575756 103.220658 9.378736 -0.183897
138.516444 103.220658 9.500280 0.185954
140.457132 103.220658 0.000000 0.000000
-55.552357 101.279970 9.492122 0.990655
-53.611669 101.279970 9.627605 0.622840
-51.670981 101.279970 8.263233 0.802426
-49.730293 101.279970 8.968091 0.808063
-47.789605 101.279970 9.569878 0.833064
-45.848917 101.279970 9.258532 0.614976
-43.908229 101.279970 8.909793 0.533610
-41.967541 101.279970 9.037617 0.873417
-40.026853 101.279970 9.490191 1.074923
-38.086165 101.279970 0.000000 0.000000
-36.145477 101.279970 0.000000 0.000000
-34.204789 101.279970 0.000000 0.000000
-32.264101 101.279970 0.000000 0.000000
-30.323413 101.279970 0.000000 0.000000
-28.382725 101.279970 0.000000 0.000000
-26.442037 101.279970 0.000000 0.000000
-24.501349 101.279970 0.000000 0.000000
-22.560661 101.279970 0.000000 0.000000
-20.619973 101.279970 0.000000 0.000000
-18.679285 101.279970 0.000000 0.000000
-16.738597 101.279970 0.000000 0.000000
-14.797909 101.279970 9.642508 0.589066
-12.857221 101.279970 9.810722 0.593237
-10.916533 101.279970 10.185823 0.563968
-8.975845 101.279970 10.327510 0.382679
-7.035157 101.279970 9.358094 0.435915
-5.094469 101.279970 8.791396 1.330607
-3.153781 101.279970 9.301963 1.781627
-1.213093 101.279970 10.390400 0.572403
0.727595 101.279970 8.480226 2.641735
2.668283 101.279970 10.230201 2.576594
4.608971 101.279970 10.541204 2.845559
6.549659 101.279970 9.020333 0.444771
8.490347 101.279970 9.337445 0.295539
10.431035 101.279970 9.677683 1.328467
12.371723 101.279970 10.047900 1.204494
14.312411 101.279970 10.640978 1.072076
16.253099 101.279970 10.769446 1.199001
18.193787 101.279970 10.303754 2.280071
20.134475 101.279970 10.064833 1.427086
22.075163 101.279970 10.270733 0.118250
24.015851 101.279970 10.105217 -0.913186
25.956539 101.279970 10.228089 -1.011335
27.897227 101.279970 11.068045 0.587488
29.837915 101.279970 10.110668 0.747060
31.778603 101.279970 9.877779 1.665690
33.719291 101.279970 9.564015 2.879541
35.659979 101.279970 9.698792 3.328540
37.600667 101.279970 10.867247 2.895449
39.541355 101.279970 10.406474 0.002341
41.482043 101.279970 12.544969 0.523732
43.422731 101.279970 12.811406 1.292239
45.363419 101.279970 11.973629 1.056986
47.304107 101.279970 10.877798 -0.951652
49.244796 101.279970 12.628598 0.588603
51.185484 101.279970 11.936169 -0.683765
53.126172 101.279970 10.473823 -0.531454
55.066860 101.279970 10.213616 0.145051
57.007548 101.279970 10.194695 1.063806
58.948236 101.279970 0.000000 0.000000
60.888924 101.279970 0.000000 0.000000
62.829612 101.279970 0.000000 0.000000
64.770300 101.279970 0.000000 0.000000
66.710988 101.279970 9.584367 0.486469
68.651676 101.279970 10.234856 0.070797
70.592364 101.279970 10.743762 0.360608
72.533052 101.279970 10.848660 0.949790
74.473740 101.279970 10.965919 0.463392
76.414428 101.279970 10.618390 -0.007901
78.355116 101.279970 10.365508 -0.127391
80.295804 101.279970 10.591138 0.213126
82.236492 101.279970 10.613494 0.279691
84.177180 101.279970 11.103432 0.285778
86.117868 101.279970 11.188967 0.205287
88.058556 101.279970 10.845548 0.460347
89.999244 101.279970 10.240208 0.470662
91.939932 101.279970 10.012414 0.074392
93.880620 101.279970 10.272315 -0.678160
95.821308 101.279970 10.635458 -0.599830
97.761996 101.279970 10.692959 -0.227682
99.702684 101.279970 10.547305 0.001067
101.643372 101.279970 10.514972 0.008612
103.584060 101.279970 10.314876 -0.071534
105.524748 101.279970 10.054737 -0.104515
107.465436 101.279970 9.984046 0.033883
109.406124 101.279970 9.976952 -0.054223
111.346812 101.279970 10.103217 -0.381590
113.287500 101.279970 10.402011 -0.353062
115.228188 101.279970 10.538853 0.355960
117.168876 101.279970 10.735838 -0.090744
119.109564 101.279970 10.426671 -0.217973
121.050252 101.279970 10.234366 0.208367
122.990940 101.279970 10.174467 0.012740
124.931628 101.279970 10.550712 0.170616
126.872316 101.279970 10.317698 0.537256
128.813004 101.279970 10.078765 0.455409
130.753692 101.279970 10.303639 0.165596
132.694380 101.279970 10.327669 0.151084
134.635068 101.279970 10.141739 0.023314
136.575756 101.279970 9.724992 -0.156522
138.516444 101.279970 9.741383 -0.193051
140.457132 101.279970 0.000000 0.000000
-55.552357 99.339282 0.000000 0.000000
-53.611669 99.339282 11.383086 -0.563908
-51.670981 99.339282 9.766935 -0.075406
-49.730293 99.339282 9.050879 0.309158
-47.789605 99.339282 9.966143 0.668310
-45.848917 99.339282 10.096489 0.473085
-43.908229 99.339282 10.320438 0.151676
-41.967541 99.339282 9.582276 0.625915
-40.026853 99.339282 9.691118 0.817519
-38.086165 99.339282 0.000000 0.000000
-36.145477 99.339282 0.000000 0.000000
-34.204789 99.339282 0.000000 0.000000
-32.264101 99.339282 0.000000 0.000000
-30.323413 99.339282 0.000000 0.000000
-28.382725 99.339282 0.000000 0.000000
-26.442037 99.339282 0.000000 0.000000
-24.501349 99.339282 0.000000 0.000000
-22.560661 99.339282 0.000000 0.000000
-20.619973 99.339282 0.000000 0.000000
-18.679285 99.339282 0.000000 0.000000
-16.738597 99.339282 0.000000 0.000000
-14.797909 99.339282 9.502457 0.971122
-12.857221 99.339282 9.661894 1.034425
-10.916533 99.339282 10.097560 0.744640
-8.975845 99.339282 10.068250 0.546618
-7.035157 99.339282 9.380020 0.915244
-5.094469 99.339282 9.246802 1.486956
-3.153781 99.339282 9.802179 1.346035
-1.213093 99.339282 10.630599 0.621682
0.727595 99.339282 10.647824 0.732138
2.668283 99.339282 10.881402 2.689336
4.608971 99.339282 9.925053 2.793648
6.549659 99.339282 9.663884 1.003484
8.490347 99.339282 9.220016 1.660425
10.431035 99.339282 9.265543 1.569046
12.371723 99.339282 9.554405 1.156742
14.312411 99.339282 9.832534 0.975609
16.253099 99.339282 9.741675 0.864501
18.193787 99.339282 8.723238 1.510937
20.134475 99.339282 9.198340 0.808222
22.075163 99.339282 9.901035 -0.220749
24.015851 99.339282 10.315827 -0.875597
25.956539 99.339282 10.518795 -0.872381
27.897227 99.339282 11.296292 0.753829
29.837915 99.339282 11.018280 0.565287
31.778603 99.339282 11.401138 1.017375
33.719291 99.339282 10.502796 2.074596
35.659979 99.339282 10.296875 2.528595
37.600667 99.339282 10.492949 1.455896
39.541355 99.339282 10.755823 -0.138261
41.482043 99.339282 11.050353 -0.119430
43.422731 99.339282 10.596292 0.485880
45.363419 99.339282 0.000000 0.000000
47.304107 99.339282 10.183037 -0.905761
49.244796 99.339282 10.698574 -0.913220
51.185484 99.339282 10.983548 -1.562178
53.126172 99.339282 10.825762 -1.849870
55.066860 99.339282 10.429433 -1.679255
57.007548 99.339282 10.935445 0.570364
58.948236 99.339282 0.000000 0.000000
60.888924 99.339282 0.000000 0.000000
62.829612 99.339282 0.000000 0.000000
64.770300 99.339282 0.000000 0.000000
66.710988 99.339282 10.467656 0.071261
68.651676 99.339282 10.909455 0.045316
70.592364 99.339282 11.543260 -0.397305
72.533052 99.339282 9.806423 0.216125
74.473740 99.339282 10.117375 0.117115
76.414428 99.339282 10.523773 0.311657
78.355116 99.339282 11.056216 1.060314
80.295804 99.339282 10.238213 0.137199
82.236492 99.339282 10.179414 -0.182911
84.177180 99.339282 10.778022 -0.191502
86.117868 99.339282 10.831422 0.276581
88.058556 99.339282 10.437442 0.082809
89.999244 99.339282 10.568758 0.043646
91.939932 99.339282 10.530816 -0.121072
93.880620 99.339282 10.703979 -0.309038
95.821308 99.339282 10.829030 -0.066446
97.761996 99.339282 10.611643 -0.108734
99.702684 99.339282 10.665311 -0.227773
101.643372 99.339282 10.523507 0.248377
103.584060 99.339282 10.154649 -0.094489
105.524748 99.339282 10.125476 -0.400018
107.465436 99.339282 10.154741 -0.030826
109.406124 99.339282 10.192567 -0.109721
111.346812 99.339282 10.462241 -0.439407
113.287500 99.339282 10.583321 -0.507823
115.228188 99.339282 10.326750 -0.330868
117.168876 99.339282 10.795732 -0.392453
119.109564 99.339282 10.675636 -0.132925
121.050252 99.339282 10.156433 0.299826
122.990940 99.339282 10.025397 0.265745
124.931628 99.339282 10.395225 0.293784
126.872316 99.339282 10.170237 0.422295
128.813004 99.339282 9.844871 0.127528
130.753692 99.339282 9.876254 0.022081
132.694380 99.339282 10.253744 0.091355
134.635068 99.339282 10.351512 0.221727
136.575756 99.339282 10.291832 0.022040
138.516444 99.339282 10.309446 -0.361144
140.457132 99.339282 0.000000 0.000000
-55.552357 97.398594 0.000000 0.000000
-53.611669 97.398594 0.000000 0.000000
-51.670981 97.398594 11.208841 -0.047775
-49.730293 97.398594 10.112428 -0.348614
-47.789605 97.398594 10.089524 0.023587
-45.848917 97.398594 10.294451 -0.112154
-43.908229 97.398594 9.479701 -0.551546
-41.967541 97.398594 9.191049 1.448368
-40.026853 97.398594 9.288696 1.028704
-38.086165 97.398594 0.000000 0.000000
-36.145477 97.398594 0.000000 0.000000
-34.204789 97.398594 0.000000 0.000000
-32.264101 97.398594 0.000000 0.000000
-30.323413 97.398594 0.000000 0.000000
-28.382725 97.398594 0.000000 0.000000
-26.442037 97.398594 0.000000 0.000000
-24.501349 97.398594 0.000000 0.000000
-22.560661 97.398594 0.000000 0.000000
-20.619973 97.398594 0.000000 0.000000
-18.679285 97.398594 0.000000 0.000000
-16.738597 97.398594 0.000000 0.000000
-14.797909 97.398594 9.532624 1.025219
-12.857221 97.398594 9.615011 1.043682
-10.916533 97.398594 9.901285 0.852389
-8.975845 97.398594 9.919063 0.935291
-7.035157 97.398594 9.576601 1.102256
-5.094469 97.398594 9.231811 1.151427
-3.153781 97.398594 9.921158 0.900721
-1.213093 97.398594 10.296008 0.757199
0.727595 97.398594 10.347656 0.855972
2.668283 97.398594 10.470881 1.322103
4.608971 97.398594 10.120327 1.867566
6.549659 97.398594 9.092581 1.750114
8.490347 97.398594 9.231536 1.611910
10.431035 97.398594 9.667798 1.261168
12.371723 97.398594 0.000000 0.000000
14.312411 97.398594 0.000000 0.000000
16.253099 97.398594 10.284464 0.585802
18.193787 97.398594 10.056719 1.165517
20.134475 97.398594 9.913413 1.416698
22.075163 97.398594 10.474126 1.222611
24.015851 97.398594 9.577311 2.025105
25.956539 97.398594 10.094059 0.740189
27.897227 97.398594 10.547158 0.310367
29.837915 97.398594 10.716555 0.656206
31.778603 97.398594 11.452101 0.940467
33.719291 97.398594 11.544547 1.754917
35.659979 97.398594 9.392327 0.293789
37.600667 97.398594 10.428448 2.152494
39.541355 97.398594 12.143020 0.909699
41.482043 97.398594 11.257109 -0.178101
43.422731 97.398594 10.353012 -0.456539
45.363419 97.398594 9.478089 -0.113737
47.304107 97.398594 10.210280 1.567801
49.244796 97.398594 11.364247 0.917164
51.185484 97.398594 11.895182 0.975480
53.126172 97.398594 10.852401 -1.630816
55.066860 97.398594 10.854905 -1.370186
57.007548 97.398594 10.244431 0.071494
58.948236 97.398594 0.000000 0.000000
60.888924 97.398594 0.000000 0.000000
62.829612 97.398594 0.000000 0.000000
64.770300 97.398594 0.000000 0.000000
66.710988 97.398594 10.801959 0.343999
68.651676 97.398594 11.137051 0.060659
70.592364 97.398594 11.563157 -0.121991
72.533052 97.398594 11.271378 -0.480629
74.473740 97.398594 9.989147 -0.419792
76.414428 97.398594 10.385720 0.579832
78.355116 97.398594 11.147060 0.656575
80.295804 97.398594 10.542030 -0.207476
82.236492 97.398594 10.312612 -0.505099
84.177180 97.398594 10.474288 -0.557894
86.117868 97.398594 10.619052 -0.294612
88.058556 97.398594 10.298453 -1.265733
89.999244 97.398594 10.754856 0.050070
91.939932 97.398594 10.668699 -0.140424
93.880620 97.398594 10.731012 -0.307832
95.821308 97.398594 10.451139 0.104842
97.761996 97.398594 10.101659 -0.143451
99.702684 97.398594 10.198489 -0.281813
101.643372 97.398594 10.381964 -0.257857
103.584060 97.398594 10.172126 -0.186803
105.524748 97.398594 9.452164 -0.537580
107.465436 97.398594 10.034644 -0.300891
109.406124 97.398594 10.419860 -0.002725
111.346812 97.398594 10.411976 0.238407
113.287500 97.398594 10.346232 0.017971
115.228188 97.398594 10.232507 -0.430705
117.168876 97.398594 10.266294 -0.507996
119.109564 97.398594 10.508195 -0.150220
121.050252 97.398594 10.249833 0.200153
122.990940 97.398594 10.004705 0.294022
124.931628 97.398594 10.295293 0.248058
126.872316 97.398594 10.523930 0.061660
128.813004 97.398594 10.168821 -0.037215
130.753692 97.398594 9.912264 0.009598
132.694380 97.398594 10.228019 -0.103157
134.635068 97.398594 10.471416 0.113530
136.575756 97.398594 10.624405 0.123145
138.516444 97.398594 10.863546 -0.194309
140.457132 97.398594 0.000000 0.000000
-55.552357 95.457906 7.641896 -0.786375
-53.611669 95.457906 7.871043 -0.643669
-51.670981 95.457906 11.283716 0.436103
-49.730293 95.457906 10.970082 -0.343262
-47.789605 95.457906 10.043308 -0.998416
-45.848917 95.457906 9.735444 0.003159
-43.908229 95.457906 9.049197 0.451149
-41.967541 95.457906 8.241396 1.219005
-40.026853 95.457906 8.855239 1.506941
-38.086165 95.457906 9.341292 1.208783
-36.145477 95.457906 0.000000 0.000000
-34.204789 95.457906 0.000000 0.000000
-32.264101 95.457906 0.000000 0.000000
-30.323413 95.457906 0.000000 0.000000
-28.382725 95.457906 0.000000 0.000000
-26.442037 95.457906 0.000000 0.000000
-24.501349 95.457906 0.000000 0.000000
-22.560661 95.457906 0.000000 0.000000
-20.619973 95.457906 0.000000 0.000000
-18.679285 95.457906 0.000000 0.000000
-16.738597 95.457906 0.000000 0.000000
-14.797909 95.457906 9.759256 0.720100
-12.857221 95.457906 9.658473 0.563468
-10.916533 95.457906 9.706443 0.538361
-8.975845 95.457906 10.147520 0.978838
-7.035157 95.457906 9.996072 0.924871
-5.094469 95.457906 9.624097 0.782348
-3.153781 95.457906 9.961496 0.818443
-1.213093 95.457906 9.991167 0.675035
0.727595 95.457906 9.783142 0.636949
2.668283 95.457906 9.850725 0.948573
4.608971 95.457906 7.877208 -0.288338
6.549659 95.457906 8.844639 1.436005
8.490347 95.457906 9.352814 1.133704
10.431035 95.457906 11.648728 0.613038
12.371723 95.457906 8.926038 -0.736955
14.312411 95.457906 0.000000 0.000000
16.253099 95.457906 10.621083 0.603106
18.193787 95.457906 10.200678 1.161480
20.134475 95.457906 9.843344 2.265670
22.075163 95.457906 9.462409 2.935379
24.015851 95.457906 9.524307 2.259585
25.956539 95.457906 9.458180 0.954719
27.897227 95.457906 9.992816 0.486901
29.837915 95.457906 9.823551 1.273400
31.778603 95.457906 10.745505 1.396375
33.719291 95.457906 10.931048 0.716570
35.659979 95.457906 8.591385 0.607848
37.600667 95.457906 0.000000 0.000000
39.541355 95.457906 12.100918 1.283167
41.482043 95.457906 11.223959 1.037639
43.422731 95.457906 10.651303 -0.040885
45.363419 95.457906 10.236045 0.213044
47.304107 95.457906 10.156723 2.078121
49.244796 95.457906 11.839931 1.876200
51.185484 95.457906 10.755940 1.764784
53.126172 95.457906 9.645140 1.521786
55.066860 95.457906 10.285933 -0.167516
57.007548 95.457906 10.373302 -0.047385
58.948236 95.457906 0.000000 0.000000
60.888924 95.457906 0.000000 0.000000
62.829612 95.457906 0.000000 0.000000
64.770300 95.457906 10.985147 0.382633
66.710988 95.457906 10.513895 0.351846
68.651676 95.457906 10.753172 0.113866
70.592364 95.457906 11.174631 0.113024
72.533052 95.457906 11.004757 -0.145223
74.473740 95.457906 10.503657 -0.325715
76.414428 95.457906 10.630072 0.129600
78.355116 95.457906 11.134739 -0.064177
80.295804 95.457906 11.104431 -0.330701
82.236492 95.457906 11.026531 -0.331701
84.177180 95.457906 10.828946 -0.576703
86.117868 95.457906 10.139088 -1.014754
88.058556 95.457906 10.898780 -0.439803
89.999244 95.457906 10.628335 -0.087777
91.939932 95.457906 10.491167 -0.026920
93.880620 95.457906 10.596026 -0.662738
95.821308 95.457906 9.997543 -0.614335
97.761996 95.457906 9.958609 -0.326191
99.702684 95.457906 9.912281 -0.266104
101.643372 95.457906 10.351475 -0.200853
103.584060 95.457906 10.289198 -0.189644
105.524748 95.457906 9.839975 -0.757023
107.465436 95.457906 10.355025 -1.040079
109.406124 95.457906 10.386760 -0.405673
111.346812 95.457906 10.138070 0.436987
113.287500 95.457906 10.324990 0.512569
115.228188 95.457906 10.262300 -0.119331
117.168876 95.457906 10.196803 -0.453490
119.109564 95.457906 10.295925 -0.303499
121.050252 95.457906 10.386514 -0.175112
122.990940 95.457906 10.401617 -0.086735
124.931628 95.457906 10.670126 0.142984
126.872316 95.457906 10.818755 0.096495
128.813004 95.457906 10.513877 0.124456
130.753692 95.457906 10.197515 0.103231
132.694380 95.457906 10.277719 0.018715
134.635068 95.457906 10.602222 0.052440
136.575756 95.457906 10.620773 0.092607
138.516444 95.457906 10.620813 0.100889
140.457132 95.457906 0.000000 0.000000
-55.552357 93.517218 9.247047 0.147939
-53.611669 93.517218 7.073574 -0.606021
-51.670981 93.517218 0.000000 0.000000
-49.730293 93.517218 10.251720 -0.663542
-47.789605 93.517218 10.236151 0.068223
-45.848917 93.517218 9.221588 0.714235
-43.908229 93.517218 8.934281 0.718767
-41.967541 93.517218 9.110539 0.918404
-40.026853 93.517218 9.179707 1.881842
-38.086165 93.517218 9.040959 2.048380
-36.145477 93.517218 0.000000 0.000000
-34.204789 93.517218 0.000000 0.000000
-32.264101 93.517218 0.000000 0.000000
-30.323413 93.517218 0.000000 0.000000
-28.382725 93.517218 0.000000 0.000000
-26.442037 93.517218 0.000000 0.000000
-24.501349 93.517218 0.000000 0.000000
-22.560661 93.517218 0.000000 0.000000
-20.619973 93.517218 0.000000 0.000000
-18.679285 93.517218 0.000000 0.000000
-16.738597 93.517218 0.000000 0.000000
-14.797909 93.517218 9.597760 0.801044
-12.857221 93.517218 9.705294 0.635741
-10.916533 93.517218 9.915982 0.469217
-8.975845 93.517218 9.970200 0.692460
-7.035157 93.517218 9.851227 0.838502
-5.094469 93.517218 9.866592 1.079273
-3.153781 93.517218 9.647928 1.079286
-1.213093 93.517218 9.909211 0.834127
0.727595 93.517218 9.767397 0.822644
2.668283 93.517218 8.537427 0.775438
4.608971 93.517218 8.503718 0.951121
6.549659 93.517218 8.955210 0.885429
8.490347 93.517218 9.811250 0.827934
10.431035 93.517218 8.650083 -0.566911
12.371723 93.517218 9.200136 -1.222247
14.312411 93.517218 10.023930 -0.995756
16.253099 93.517218 10.053852 1.120067
18.193787 93.517218 10.133485 1.796101
20.134475 93.517218 9.873336 1.592757
22.075163 93.517218 9.824032 0.760691
24.015851 93.517218 10.431756 0.900895
25.956539 93.517218 9.543677 1.091244
27.897227 93.517218 10.562325 0.561505
29.837915 93.517218 9.883906 1.437199
31.778603 93.517218 10.233282 1.861469
33.719291 93.517218 10.646173 1.289807
35.659979 93.517218 11.409950 0.194915
37.600667 93.517218 11.759563 1.139762
39.541355 93.517218 11.071711 1.191831
41.482043 93.517218 11.172874 0.783574
43.422731 93.517218 11.355382 0.405829
45.363419 93.517218 9.465759 2.326889
47.304107 93.517218 10.977498 1.674294
49.244796 93.517218 11.526058 0.790297
51.185484 93.517218 10.700358 0.411841
53.126172 93.517218 8.943457 1.353691
55.066860 93.517218 8.900211 1.178791
57.007548 93.517218 11.043440 0.386980
58.948236 93.517218 0.000000 0.000000
60.888924 93.517218 0.000000 0.000000
62.829612 93.517218 0.000000 0.000000
64.770300 93.517218 10.373629 0.205844
66.710988 93.517218 10.636243 0.233216
68.651676 93.517218 10.371787 0.119084
70.592364 93.517218 10.365927 0.069204
72.533052 93.517218 10.318457 0.097021
74.473740 93.517218 10.121330 -0.165045
76.414428 93.517218 10.638939 -0.321145
78.355116 93.517218 10.853142 -0.188806
80.295804 93.517218 10.769506 0.088346
82.236492 93.517218 10.718554 0.668921
84.177180 93.517218 10.141747 0.713721
86.117868 93.517218 10.077031 -0.698990
88.058556 93.517218 10.763067 -0.516592
89.999244 93.517218 10.642335 -0.239539
91.939932 93.517218 10.278397 -0.137626
93.880620 93.517218 10.049154 0.033010
95.821308 93.517218 9.932514 0.060407
97.761996 93.517218 9.997744 -0.137626
99.702684 93.517218 9.914658 -0.188984
101.643372 93.517218 10.418358 -0.254097
103.584060 93.517218 10.903391 -0.353711
105.524748 93.517218 10.324423 -0.465813
107.465436 93.517218 10.343123 -0.938816
109.406124 93.517218 10.317897 -0.774220
111.346812 93.517218 10.041814 -0.143187
113.287500 93.517218 10.409520 0.217264
115.228188 93.517218 10.553155 -0.083062
117.168876 93.517218 10.554377 -0.233265
119.109564 93.517218 10.390668 0.003367
121.050252 93.517218 10.197994 0.075338
122.990940 93.517218 10.224486 -0.285584
124.931628 93.517218 10.540150 -0.160387
126.872316 93.517218 10.712389 0.419998
128.813004 93.517218 10.158122 0.392584
130.753692 93.517218 9.993745 -0.057495
132.694380 93.517218 10.120124 -0.158894
134.635068 93.517218 10.196692 -0.144193
136.575756 93.517218 10.310401 -0.152881
138.516444 93.517218 10.042721 0.159206
140.457132 93.517218 0.000000 0.000000
-55.552357 91.576530 9.217342 0.967940
-53.611669 91.576530 8.775754 0.850272
-51.670981 91.576530 7.595657 1.017129
-49.730293 91.576530 9.172221 0.985516
-47.789605 91.576530 9.443267 0.595097
-45.848917 91.576530 8.858000 1.028748
-43.908229 91.576530 8.895705 0.678494
-41.967541 91.576530 10.086077 -0.612125
-40.026853 91.576530 9.979802 1.380094
-38.086165 91.576530 9.727240 2.019918
-36.145477 91.576530 0.000000 0.000000
-34.204789 91.576530 0.000000 0.000000
-32.264101 91.576530 0.000000 0.000000
-30.323413 91.576530 0.000000 0.000000
-28.382725 91.576530 0.000000 0.000000
-26.442037 91.576530 0.000000 0.000000
-24.501349 91.576530 0.000000 0.000000
-22.560661 91.576530 0.000000 0.000000
-20.619973 91.576530 0.000000 0.000000
-18.679285 91.576530 0.000000 0.000000
-16.738597 91.576530 0.000000 0.000000
-14.797909 91.576530 9.305285 1.030045
-12.857221 91.576530 9.832472 1.069854
-10.916533 91.576530 10.550323 1.049091
-8.975845 91.576530 9.636312 1.164307
-7.035157 91.576530 9.501866 1.003199
-5.094469 91.576530 9.527514 1.011747
-3.153781 91.576530 9.380213 1.354856
-1.213093 91.576530 10.170542 1.650568
0.727595 91.576530 10.113277 1.506670
2.668283 91.576530 8.737243 1.029998
4.608971 91.576530 8.561377 1.028013
6.549659 91.576530 9.252762 1.276742
8.490347 91.576530 10.394285 0.750419
10.431035 91.576530 9.992614 0.560203
12.371723 91.576530 9.891541 0.126766
14.312411 91.576530 10.319447 -0.669944
16.253099 91.576530 9.824433 -0.009743
18.193787 91.576530 10.233394 1.690570
20.134475 91.576530 11.110373 1.394367
22.075163 91.576530 10.459208 0.659299
24.015851 91.576530 10.639804 0.329830
25.956539 91.576530 10.823818 0.556503
27.897227 91.576530 11.051455 0.588497
29.837915 91.576530 10.671981 0.805614
31.778603 91.576530 11.229940 1.011583
33.719291 91.576530 11.212662 0.902541
35.659979 91.576530 11.014145 1.279372
37.600667 91.576530 10.704166 1.326500
39.541355 91.576530 10.826280 1.083585
41.482043 91.576530 11.062372 0.501370
43.422731 91.576530 11.124104 -0.014814
45.363419 91.576530 10.548798 0.600023
47.304107 91.576530 9.322822 0.120799
49.244796 91.576530 10.405860 0.082204
51.185484 91.576530 10.747954 -0.576519
53.126172 91.576530 10.032904 -1.177876
55.066860 91.576530 8.990985 1.386549
57.007548 91.576530 11.300357 0.690091
58.948236 91.576530 0.000000 0.000000
60.888924 91.576530 0.000000 0.000000
62.829612 91.576530 0.000000 0.000000
64.770300 91.576530 10.862245 0.312759
66.710988 91.576530 11.013366 0.170920
68.651676 91.576530 10.632313 0.109502
70.592364 91.576530 10.334875 0.183673
72.533052 91.576530 10.401938 0.044240
74.473740 91.576530 10.505869 -0.067981
76.414428 91.576530 10.839911 -0.110948
78.355116 91.576530 10.640944 -0.110742
80.295804 91.576530 10.553988 0.286785
82.236492 91.576530 10.547620 0.613719
84.177180 91.576530 10.184186 0.254600
86.117868 91.576530 10.504282 -0.216937
88.058556 91.576530 10.642548 -0.511345
89.999244 91.576530 10.623819 -0.508720
91.939932 91.576530 10.245433 -0.555673
93.880620 91.576530 9.870157 -0.248715
95.821308 91.576530 9.901083 0.338356
97.761996 91.576530 9.886507 0.108251
99.702684 91.576530 9.976252 -0.069361
101.643372 91.576530 10.252837 -0.176488
103.584060 91.576530 10.790133 -0.390796
105.524748 91.576530 10.488355 -0.306297
107.465436 91.576530 10.065862 -0.231920
109.406124 91.576530 10.126033 -0.453570
111.346812 91.576530 10.257003 -0.831371
113.287500 91.576530 10.437140 -0.356109
115.228188 91.576530 10.386070 -0.004706
117.168876 91.576530 10.313379 0.035162
119.109564 91.576530 10.414598 -0.171548
121.050252 91.576530 10.186378 -0.209287
122.990940 91.576530 9.922899 -0.002011
124.931628 91.576530 10.421240 -0.000529
126.872316 91.576530 10.467726 0.183047
128.813004 91.576530 9.863832 0.109872
130.753692 91.576530 9.695459 0.080855
132.694380 91.576530 9.708529 -0.344949
134.635068 91.576530 10.123892 -0.842338
136.575756 91.576530 10.286367 -0.599989
138.516444 91.576530 9.943158 -0.238327
140.457132 91.576530 0.000000 0.000000
-55.552357 89.635842 9.161894 1.164654
-53.611669 89.635842 9.011243 0.636759
-51.670981 89.635842 9.118379 0.687301
-49.730293 89.635842 9.074210 1.015635
-47.789605 89.635842 8.894464 0.740730
-45.848917 89.635842 8.948423 0.832631
-43.908229 89.635842 9.203550 0.693634
-41.967541 89.635842 9.815523 -0.172871
-40.026853 89.635842 10.217075 -0.142927
-38.086165 89.635842 9.853339 1.139073
-36.145477 89.635842 0.000000 0.000000
-34.204789 89.635842 0.000000 0.000000
-32.264101 89.635842 0.000000 0.000000
-30.323413 89.635842 0.000000 0.000000
-28.382725 89.635842 0.000000 0.000000
-26.442037 89.635842 0.000000 0.000000
-24.501349 89.635842 0.000000 0.000000
-22.560661 89.635842 0.000000 0.000000
-20.619973 89.635842 0.000000 0.000000
-18.679285 89.635842 0.000000 0.000000
-16.738597 89.635842 0.000000 0.000000
-14.797909 89.635842 9.333487 1.393545
-12.857221 89.635842 9.742870 1.367324
-10.916533 89.635842 10.110184 1.546613
-8.975845 89.635842 9.652785 1.553232
-7.035157 89.635842 9.767469 1.256721
-5.094469 89.635842 9.869653 0.712014
-3.153781 89.635842 9.796843 0.800782
-1.213093 89.635842 9.779237 1.706130
0.727595 89.635842 9.962399 1.662095
2.668283 89.635842 9.640683 1.030017
4.608971 89.635842 9.070013 0.702388
6.549659 89.635842 9.606239 1.327062
8.490347 89.635842 10.677872 1.268999
10.431035 89.635842 10.370427 1.168166
12.371723 89.635842 10.190794 1.330661
14.312411 89.635842 10.568907 0.393876
16.253099 89.635842 10.609125 0.689554
18.193787 89.635842 10.530802 1.220381
20.134475 89.635842 10.640604 1.343762
22.075163 89.635842 9.531874 1.136304
24.015851 89.635842 10.325092 0.700570
25.956539 89.635842 10.480792 0.588135