TITLE = "B00076"
VARIABLES = "position", "position(2)", "Vx", "Vy"
ZONE T="Frame 0", I=102, J=78
-55.552357 103.220658 0.000000 0.000000
-53.611669 103.220658 12.947288 1.973571
-51.670981 103.220658 11.108727 0.380514
-49.730293 103.220658 9.739094 0.757953
-47.789605 103.220658 8.181477 0.768211
-45.848917 103.220658 8.752255 0.526806
-43.908229 103.220658 9.703559 0.741094
-41.967541 103.220658 9.781163 0.427058
-40.026853 103.220658 9.229697 0.287982
-38.086165 103.220658 0.000000 0.000000
-36.145477 103.220658 0.000000 0.000000
-34.204789 103.220658 0.000000 0.000000
-32.264101 103.220658 0.000000 0.000000
-30.323413 103.220658 0.000000 0.000000
-28.382725 103.220658 0.000000 0.000000
-26.442037 103.220658 0.000000 0.000000
-24.501349 103.220658 0.000000 0.000000
-22.560661 103.220658 0.000000 0.000000
-20.619973 103.220658 0.000000 0.000000
-18.679285 103.220658 0.000000 0.000000
-16.738597 103.220658 0.000000 0.000000
-14.797909 103.220658 0.000000 0.000000
-12.857221 103.220658 9.642146 0.901495
-10.916533 103.220658 9.719274 1.104568
-8.975845 103.220658 9.734714 0.654818
-7.035157 103.220658 9.730219 0.652099
-5.094469 103.220658 9.753819 1.602088
-3.153781 103.220658 9.939408 1.521778
-1.213093 103.220658 10.011696 1.227391
0.727595 103.220658 9.771456 0.907654
2.668283 103.220658 9.695499 1.092847
4.608971 103.220658 9.676830 1.530596
6.549659 103.220658 7.488437 1.744679
8.490347 103.220658 7.427751 1.208911
10.431035 103.220658 8.924870 1.334767
12.371723 103.220658 9.445515 1.389553
14.312411 103.220658 10.020390 1.369866
16.253099 103.220658 11.176590 1.163716
18.193787 103.220658 0.000000 0.000000
20.134475 103.220658 0.000000 0.000000
22.075163 103.220658 11.729530 1.945128
24.015851 103.220658 11.316097 1.262520
25.956539 103.220658 11.046275 1.543201
27.897227 103.220658 10.602480 2.082435
29.837915 103.220658 10.057816 1.670974
31.778603 103.220658 9.833599 0.318518
33.719291 103.220658 10.359096 0.246181
35.659979 103.220658 10.820320 1.833843
37.600667 103.220658 10.772707 1.097771
39.541355 103.220658 9.490432 0.608101
41.482043 103.220658 9.016357 -0.058829
43.422731 103.220658 9.355460 -0.513915
45.363419 103.220658 11.188620 1.527073
47.304107 103.220658 10.678867 1.582388
49.244796 103.220658 11.326592 1.064169
51.185484 103.220658 10.734611 0.765774
53.126172 103.220658 10.366275 2.120101
55.066860 103.220658 10.501627 1.804822
57.007548 103.220658 0.000000 0.000000
58.948236 103.220658 0.000000 0.000000
60.888924 103.220658 0.000000 0.000000
62.829612 103.220658 0.000000 0.000000
64.770300 103.220658 0.000000 0.000000
66.710988 103.220658 12.950478 1.780584
68.651676 103.220658 12.834418 1.729729
70.592364 103.220658 10.510662 -0.864929
72.533052 103.220658 10.210945 -0.319428
74.473740 103.220658 8.675652 1.435556
76.414428 103.220658 9.831207 0.761041
78.355116 103.220658 9.972163 0.029435
80.295804 103.220658 10.308781 -0.396467
82.236492 103.220658 10.455157 -0.068039
84.177180 103.220658 10.612607 0.384985
86.117868 103.220658 11.001674 -0.423737
88.058556 103.220658 11.288251 -0.590346
89.999244 103.220658 11.228176 0.016447
91.939932 103.220658 10.770451 0.463558
93.880620 103.220658 10.017958 0.350520
95.821308 103.220658 10.176131 0.032836
97.761996 103.220658 10.457701 -0.624322
99.702684 103.220658 10.521809 -0.182601
101.643372 103.220658 10.423806 0.071821
103.584060 103.220658 10.106364 -0.278895
105.524748 103.220658 10.366235 -0.594333
107.465436 103.220658 10.551026 -0.554665
109.406124 103.220658 10.710955 -0.316850
111.346812 103.220658 10.743192 -0.384741
113.287500 103.220658 8.566434 -0.648678
115.228188 103.220658 10.195142 -0.438344
117.168876 103.220658 10.704749 -0.418407
119.109564 103.220658 10.682965 -0.218126
121.050252 103.220658 10.712751 -0.843513
122.990940 103.220658 10.993320 -1.151430
124.931628 103.220658 11.091167 -0.372887
126.872316 103.220658 10.665588 -0.458749
128.813004 103.220658 9.982976 -0.215314
130.753692 103.220658 10.146188 0.235059
132.694380 103.220658 10.599392 -0.265822
134.635068 103.220658 10.436274 -1.039097
136.575756 103.220658 10.192327 -0.818887
138.516444 103.220658 9.761698 -0.081496
140.457132 103.220658 0.000000 0.000000
-55.552357 101.279970 9.184611 1.719366
-53.611669 101.279970 0.000000 0.000000
-51.670981 101.279970 10.577620 0.123526
-49.730293 101.279970 9.140676 0.801733
-47.789605 101.279970 8.756580 0.556912
-45.848917 101.279970 8.828317 0.518729
-43.908229 101.279970 9.578408 0.992739
-41.967541 101.279970 9.649608 0.827993
-40.026853 101.279970 9.307395 0.394344
-38.086165 101.279970 0.000000 0.000000
-36.145477 101.279970 0.000000 0.000000
-34.204789 101.279970 0.000000 0.000000
-32.264101 101.279970 0.000000 0.000000
-30.323413 101.279970 0.000000 0.000000
-28.382725 101.279970 0.000000 0.000000
-26.442037 101.279970 0.000000 0.000000
-24.501349 101.279970 0.000000 0.000000
-22.560661 101.279970 0.000000 0.000000
-20.619973 101.279970 0.000000 0.000000
-18.679285 101.279970 0.000000 0.000000
-16.738597 101.279970 0.000000 0.000000
-14.797909 101.279970 9.793089 0.504249
-12.857221 101.279970 9.786198 0.804238
-10.916533 101.279970 9.825047 0.956926
-8.975845 101.279970 9.866905 0.734798
-7.035157 101.279970 9.739741 0.832316
-5.094469 101.279970 9.934540 1.130043
-3.153781 101.279970 10.214576 1.632996
-1.213093 101.279970 10.169717 1.403829
0.727595 101.279970 10.002241 0.985120
2.668283 101.279970 10.044889 1.175678
4.608971 101.279970 10.180768 1.678262
6.549659 101.279970 0.000000 0.000000
8.490347 101.279970 8.481567 1.750882
10.431035 101.279970 9.257483 1.463886
12.371723 101.279970 9.818567 1.414769
14.312411 101.279970 10.171904 1.157480
16.253099 101.279970 11.681102 0.865208
18.193787 101.279970 11.686440 1.460303
20.134475 101.279970 11.063457 2.281389
22.075163 101.279970 10.185699 2.399841
24.015851 101.279970 10.574672 0.766255
25.956539 101.279970 10.624384 1.303029
27.897227 101.279970 10.319791 1.575219
29.837915 101.279970 9.754411 1.405234
31.778603 101.279970 9.865377 0.490106
33.719291 101.279970 10.223932 0.651627
35.659979 101.279970 11.380329 1.332187
37.600667 101.279970 11.094534 0.481341
39.541355 101.279970 10.088935 -0.141028
41.482043 101.279970 9.764176 -0.420930
43.422731 101.279970 10.244908 -0.341289
45.363419 101.279970 9.965619 1.740073
47.304107 101.279970 10.362598 1.488177
49.244796 101.279970 11.441134 -0.150507
51.185484 101.279970 10.482338 0.338797
53.126172 101.279970 9.635004 0.949812
55.066860 101.279970 10.792727 -0.121597
57.007548 101.279970 11.013423 -0.456835
58.948236 101.279970 0.000000 0.000000
60.888924 101.279970 0.000000 0.000000
62.829612 101.279970 0.000000 0.000000
64.770300 101.279970 0.000000 0.000000
66.710988 101.279970 10.667168 -0.543528
68.651676 101.279970 10.964832 -0.434768
70.592364 101.279970 10.915469 -0.133901
72.533052 101.279970 10.491589 0.005503
74.473740 101.279970 10.088937 0.174600
76.414428 101.279970 9.973961 0.608536
78.355116 101.279970 10.032119 0.341774
80.295804 101.279970 10.098650 -0.069775
82.236492 101.279970 10.333123 -0.128386
84.177180 101.279970 10.589561 -0.091904
86.117868 101.279970 10.623494 -0.292228
88.058556 101.279970 10.770348 -0.570691
89.999244 101.279970 10.879860 -0.180987
91.939932 101.279970 11.078912 0.179028
93.880620 101.279970 10.648268 0.482700
95.821308 101.279970 10.260756 0.456260
97.761996 101.279970 10.614464 -0.014435
99.702684 101.279970 10.547458 -0.085303
101.643372 101.279970 10.424418 -0.032181
103.584060 101.279970 10.162930 -0.472956
105.524748 101.279970 10.322860 -0.667448
107.465436 101.279970 10.416364 -0.708928
109.406124 101.279970 10.536596 -0.437306
111.346812 101.279970 10.550447 -0.333229
113.287500 101.279970 10.540552 -0.907236
115.228188 101.279970 10.919760 -0.753807
117.168876 101.279970 10.713554 -0.471008
119.109564 101.279970 10.440045 -0.132789
121.050252 101.279970 10.409448 -0.305222
122.990940 101.279970 10.471176 -0.683808
124.931628 101.279970 10.648284 -0.465805
126.872316 101.279970 10.603589 -0.592752
128.813004 101.279970 10.303019 -0.224892
130.753692 101.279970 10.114138 0.092063
132.694380 101.279970 10.748707 -0.256375
134.635068 101.279970 10.680911 -0.662300
136.575756 101.279970 10.292595 -0.432234
138.516444 101.279970 9.996485 0.082724
140.457132 101.279970 0.000000 0.000000
-55.552357 99.339282 11.522538 -1.230371
-53.611669 99.339282 9.507586 -0.674034
-51.670981 99.339282 9.940180 -0.174250
-49.730293 99.339282 9.521764 0.325402
-47.789605 99.339282 9.094495 0.185122
-45.848917 99.339282 8.530763 0.023297
-43.908229 99.339282 9.354828 0.638062
-41.967541 99.339282 9.718620 0.977412
-40.026853 99.339282 9.355525 1.065052
-38.086165 99.339282 0.000000 0.000000
-36.145477 99.339282 0.000000 0.000000
-34.204789 99.339282 0.000000 0.000000
-32.264101 99.339282 0.000000 0.000000
-30.323413 99.339282 0.000000 0.000000
-28.382725 99.339282 0.000000 0.000000
-26.442037 99.339282 0.000000 0.000000
-24.501349 99.339282 0.000000 0.000000
-22.560661 99.339282 0.000000 0.000000
-20.619973 99.339282 0.000000 0.000000
-18.679285 99.339282 0.000000 0.000000
-16.738597 99.339282 0.000000 0.000000
-14.797909 99.339282 9.844468 0.580022
-12.857221 99.339282 10.031232 0.780058
-10.916533 99.339282 9.835407 0.853316
-8.975845 99.339282 9.704149 0.645682
-7.035157 99.339282 9.749561 0.792091
-5.094469 99.339282 9.983855 0.896841
-3.153781 99.339282 10.087748 1.101793
-1.213093 99.339282 9.983195 1.064662
0.727595 99.339282 9.982696 0.534081
2.668283 99.339282 9.792452 0.592174
4.608971 99.339282 10.077886 1.476594
6.549659 99.339282 9.471316 2.487807
8.490347 99.339282 9.034517 1.905435
10.431035 99.339282 9.529125 1.247848
12.371723 99.339282 10.365333 0.740721
14.312411 99.339282 10.810555 0.090696
16.253099 99.339282 11.601745 0.467630
18.193787 99.339282 10.761507 1.840351
20.134475 99.339282 10.200796 1.993679
22.075163 99.339282 10.214548 0.111627
24.015851 99.339282 10.296877 0.449179
25.956539 99.339282 10.339088 0.794539
27.897227 99.339282 10.216957 1.225071
29.837915 99.339282 10.340255 0.913822
31.778603 99.339282 10.039915 0.447726
33.719291 99.339282 0.000000 0.000000
35.659979 99.339282 11.587243 0.481802
37.600667 99.339282 11.330370 -0.700641
39.541355 99.339282 9.814816 -1.407176
41.482043 99.339282 0.000000 0.000000
43.422731 99.339282 0.000000 0.000000
45.363419 99.339282 10.193715 2.272365
47.304107 99.339282 11.723471 -0.625440
49.244796 99.339282 11.514322 -0.782260
51.185484 99.339282 10.163583 0.660696
53.126172 99.339282 10.385623 1.453796
55.066860 99.339282 12.245674 1.136969
57.007548 99.339282 12.026532 0.777610
58.948236 99.339282 0.000000 0.000000
60.888924 99.339282 0.000000 0.000000
62.829612 99.339282 0.000000 0.000000
64.770300 99.339282 0.000000 0.000000
66.710988 99.339282 10.240396 -0.463995
68.651676 99.339282 10.345070 -0.486403
70.592364 99.339282 11.498233 0.783323
72.533052 99.339282 11.566081 1.020501
74.473740 99.339282 10.203032 0.248977
76.414428 99.339282 10.585129 0.195941
78.355116 99.339282 10.604395 0.281734
80.295804 99.339282 10.271555 0.231812
82.236492 99.339282 10.282262 -0.153325
84.177180 99.339282 10.393088 -0.146934
86.117868 99.339282 10.346982 -0.328707
88.058556 99.339282 10.403768 -0.143609
89.999244 99.339282 10.430730 -0.119491
91.939932 99.339282 10.679873 0.020534
93.880620 99.339282 10.688890 0.349683
95.821308 99.339282 10.468308 0.569642
97.761996 99.339282 10.683506 0.278177
99.702684 99.339282 10.383271 -0.032487
101.643372 99.339282 10.530376 -0.174136
103.584060 99.339282 10.695123 -0.544459
105.524748 99.339282 10.470165 -0.833322
107.465436 99.339282 10.182463 -0.775745
109.406124 99.339282 10.302565 -0.418584
111.346812 99.339282 10.435513 -0.126125
113.287500 99.339282 10.558907 -0.370937
115.228188 99.339282 10.896421 -0.484619
117.168876 99.339282 10.473421 -0.204815
119.109564 99.339282 10.134484 -0.182412
121.050252 99.339282 10.395355 -0.074849
122.990940 99.339282 10.294279 -0.226683
124.931628 99.339282 10.369952 -0.427181
126.872316 99.339282 10.278266 -0.608379
128.813004 99.339282 10.393013 -0.683677
130.753692 99.339282 10.587528 -0.408211
132.694380 99.339282 10.731311 -0.408243
134.635068 99.339282 10.824978 -0.424067
136.575756 99.339282 10.211978 -0.053909
138.516444 99.339282 9.880635 0.369998
140.457132 99.339282 0.000000 0.000000
-55.552357 97.398594 9.603725 -0.582783
-53.611669 97.398594 7.955719 1.370395
-51.670981 97.398594 8.514133 0.820480
-49.730293 97.398594 9.241333 0.235168
-47.789605 97.398594 9.277860 0.344533
-45.848917 97.398594 8.250145 0.065765
-43.908229 97.398594 8.984084 0.423419
-41.967541 97.398594 9.612148 0.696777
-40.026853 97.398594 9.573260 1.182067
-38.086165 97.398594 0.000000 0.000000
-36.145477 97.398594 0.000000 0.000000
-34.204789 97.398594 0.000000 0.000000
-32.264101 97.398594 0.000000 0.000000
-30.323413 97.398594 0.000000 0.000000
-28.382725 97.398594 0.000000 0.000000
-26.442037 97.398594 0.000000 0.000000
-24.501349 97.398594 0.000000 0.000000
-22.560661 97.398594 0.000000 0.000000
-20.619973 97.398594 0.000000 0.000000
-18.679285 97.398594 0.000000 0.000000
-16.738597 97.398594 0.000000 0.000000
-14.797909 97.398594 9.911475 0.798163
-12.857221 97.398594 10.052712 0.838175
-10.916533 97.398594 9.812095 0.721098
-8.975845 97.398594 9.567060 0.898633
-7.035157 97.398594 10.051597 1.009371
-5.094469 97.398594 10.298659 0.602310
-3.153781 97.398594 9.845303 0.383472
-1.213093 97.398594 9.449924 0.441145
0.727595 97.398594 9.412029 -0.075182
2.668283 97.398594 9.532184 0.098250
4.608971 97.398594 9.998808 0.742589
6.549659 97.398594 9.982636 1.124560
8.490347 97.398594 8.811928 1.573592
10.431035 97.398594 9.456150 1.052936
12.371723 97.398594 10.308314 0.694309
14.312411 97.398594 11.258594 -0.458034
16.253099 97.398594 0.000000 0.000000
18.193787 97.398594 9.345655 1.572280
20.134475 97.398594 10.315865 1.030200
22.075163 97.398594 10.520534 0.686397
24.015851 97.398594 10.586142 0.625664
25.956539 97.398594 10.672296 1.011413
27.897227 97.398594 10.501905 1.209633
29.837915 97.398594 10.347489 0.820897
31.778603 97.398594 10.276555 0.661774
33.719291 97.398594 10.389708 0.417511
35.659979 97.398594 11.063344 0.080707
37.600667 97.398594 10.869477 -0.174230
39.541355 97.398594 10.532711 -0.476983
41.482043 97.398594 10.648695 0.581375
43.422731 97.398594 9.912663 2.436050
45.363419 97.398594 10.398851 1.710072
47.304107 97.398594 10.894416 0.563391
49.244796 97.398594 10.654764 -0.270514
51.185484 97.398594 10.401102 0.056767
53.126172 97.398594 10.807030 3.181578
55.066860 97.398594 10.896261 0.388924
57.007548 97.398594 11.175156 1.078512
58.948236 97.398594 0.000000 0.000000
60.888924 97.398594 0.000000 0.000000
62.829612 97.398594 0.000000 0.000000
64.770300 97.398594 0.000000 0.000000
66.710988 97.398594 10.763873 0.028206
68.651676 97.398594 10.727099 -0.277676
70.592364 97.398594 10.525822 -1.201642
72.533052 97.398594 11.486121 0.792623
74.473740 97.398594 10.494752 0.500825
76.414428 97.398594 10.816273 0.144309
78.355116 97.398594 11.080494 -0.399018
80.295804 97.398594 10.957586 -0.440900
82.236492 97.398594 10.337936 0.461774
84.177180 97.398594 9.821108 -0.423953
86.117868 97.398594 10.349245 -0.545503
88.058556 97.398594 10.708501 -0.715174
89.999244 97.398594 10.303857 -0.569574
91.939932 97.398594 10.436190 -0.120153
93.880620 97.398594 10.579924 -0.029758
95.821308 97.398594 10.420687 -0.037904
97.761996 97.398594 10.063255 0.413072
99.702684 97.398594 10.358706 0.130517
101.643372 97.398594 10.563290 -0.136497
103.584060 97.398594 10.588627 -0.301462
105.524748 97.398594 10.590667 -0.509751
107.465436 97.398594 10.305835 -0.646758
109.406124 97.398594 10.460999 -0.329702
111.346812 97.398594 10.233207 0.083350
113.287500 97.398594 10.198837 -0.025848
115.228188 97.398594 10.300714 -0.322615
117.168876 97.398594 10.201902 -0.431731
119.109564 97.398594 10.255439 -0.313151
121.050252 97.398594 10.121664 -0.154110
122.990940 97.398594 10.169692 -0.339918
124.931628 97.398594 10.187062 -0.208617
126.872316 97.398594 10.010272 -0.359624
128.813004 97.398594 10.254506 -0.778554
130.753692 97.398594 10.593693 -0.698966
132.694380 97.398594 10.542283 -0.509046
134.635068 97.398594 10.433111 -0.346257
136.575756 97.398594 10.040378 -0.136096
138.516444 97.398594 10.024878 -0.020510
140.457132 97.398594 0.000000 0.000000
-55.552357 95.457906 7.707915 -0.204505
-53.611669 95.457906 7.897677 0.351644
-51.670981 95.457906 9.510250 1.171246
-49.730293 95.457906 9.772423 1.409617
-47.789605 95.457906 9.773042 0.903309
-45.848917 95.457906 9.212209 0.650017
-43.908229 95.457906 9.318564 1.115264
-41.967541 95.457906 9.387225 0.907130
-40.026853 95.457906 9.224097 0.440525
-38.086165 95.457906 8.866071 0.199268
-36.145477 95.457906 0.000000 0.000000
-34.204789 95.457906 0.000000 0.000000
-32.264101 95.457906 0.000000 0.000000
-30.323413 95.457906 0.000000 0.000000
-28.382725 95.457906 0.000000 0.000000
-26.442037 95.457906 0.000000 0.000000
-24.501349 95.457906 0.000000 0.000000
-22.560661 95.457906 0.000000 0.000000
-20.619973 95.457906 0.000000 0.000000
-18.679285 95.457906 0.000000 0.000000
-16.738597 95.457906 0.000000 0.000000
-14.797909 95.457906 9.989818 0.589499
-12.857221 95.457906 9.890913 0.770506
-10.916533 95.457906 9.637201 1.328897
-8.975845 95.457906 10.101477 2.077203
-7.035157 95.457906 10.139902 1.375503
-5.094469 95.457906 10.108880 0.898766
-3.153781 95.457906 9.615489 0.223371
-1.213093 95.457906 9.878754 -0.572289
0.727595 95.457906 9.723319 0.407746
2.668283 95.457906 9.767198 0.720196
4.608971 95.457906 10.112792 0.272098
6.549659 95.457906 9.727920 -0.349456
8.490347 95.457906 10.101693 -0.272263
10.431035 95.457906 9.855560 1.353719
12.371723 95.457906 9.905331 1.372651
14.312411 95.457906 9.424804 0.552380
16.253099 95.457906 9.402684 1.254040
18.193787 95.457906 9.724585 1.878725
20.134475 95.457906 10.340033 2.072277
22.075163 95.457906 10.580082 2.448381
24.015851 95.457906 10.256035 1.225293
25.956539 95.457906 10.609327 1.075711
27.897227 95.457906 9.495382 1.406857
29.837915 95.457906 9.463651 1.209244
31.778603 95.457906 9.884758 0.951007
33.719291 95.457906 10.012067 0.748308
35.659979 95.457906 10.393688 1.220028
37.600667 95.457906 9.630324 2.505095
39.541355 95.457906 10.562828 1.635217
41.482043 95.457906 11.254783 1.347019
43.422731 95.457906 11.295483 1.150808
45.363419 95.457906 10.499400 1.622347
47.304107 95.457906 10.457526 0.850150
49.244796 95.457906 10.362396 -1.578009
51.185484 95.457906 10.056588 2.268147
53.126172 95.457906 10.293837 3.089135
55.066860 95.457906 10.432776 2.353169
57.007548 95.457906 9.619887 -1.838956
58.948236 95.457906 0.000000 0.000000
60.888924 95.457906 0.000000 0.000000
62.829612 95.457906 0.000000 0.000000
64.770300 95.457906 10.675456 0.888983
66.710988 95.457906 11.146712 0.214207
68.651676 95.457906 11.044477 -0.198342
70.592364 95.457906 10.532763 -0.529016
72.533052 95.457906 10.699843 -0.300874
74.473740 95.457906 10.225677 0.297233
76.414428 95.457906 10.189553 -0.063789
78.355116 95.457906 10.712034 -0.770626
80.295804 95.457906 10.806082 -0.479153
82.236492 95.457906 10.745623 0.527287
84.177180 95.457906 10.060618 0.893630
86.117868 95.457906 10.347986 -0.534141
88.058556 95.457906 10.580361 -0.571183
89.999244 95.457906 10.397635 -0.499883
91.939932 95.457906 10.410769 -0.241584
93.880620 95.457906 10.308495 -0.568828
95.821308 95.457906 10.411621 -0.608317
97.761996 95.457906 10.275053 -0.040879
99.702684 95.457906 10.693912 0.235546
101.643372 95.457906 10.550039 0.177532
103.584060 95.457906 10.466216 0.371307
105.524748 95.457906 10.538424 0.203960
107.465436 95.457906 10.608043 -0.443164
109.406124 95.457906 10.736855 -0.143474
111.346812 95.457906 10.431461 0.123676
113.287500 95.457906 10.439533 -0.089888
115.228188 95.457906 10.415127 -0.346595
117.168876 95.457906 10.232249 -0.327661
119.109564 95.457906 10.364413 -0.186362
121.050252 95.457906 10.396358 -0.297700
122.990940 95.457906 10.064562 -0.483241
124.931628 95.457906 10.082892 -0.310788
126.872316 95.457906 9.974592 -0.378086
128.813004 95.457906 10.207438 -0.678038
130.753692 95.457906 10.567788 -0.743607
132.694380 95.457906 10.665528 -0.640965
134.635068 95.457906 10.453840 -0.309707
136.575756 95.457906 10.175306 -0.254996
138.516444 95.457906 10.238679 -0.433932
140.457132 95.457906 0.000000 0.000000
-55.552357 93.517218 8.696482 1.596380
-53.611669 93.517218 8.648513 0.888591
-51.670981 93.517218 9.317765 0.584425
-49.730293 93.517218 9.443559 1.371064
-47.789605 93.517218 9.207495 1.182602
-45.848917 93.517218 9.641438 0.877724
-43.908229 93.517218 9.511537 0.959422
-41.967541 93.517218 9.384758 0.889797
-40.026853 93.517218 8.973286 0.278588
-38.086165 93.517218 8.633760 -0.050698
-36.145477 93.517218 0.000000 0.000000
-34.204789 93.517218 0.000000 0.000000
-32.264101 93.517218 0.000000 0.000000
-30.323413 93.517218 0.000000 0.000000
-28.382725 93.517218 0.000000 0.000000
-26.442037 93.517218 0.000000 0.000000
-24.501349 93.517218 0.000000 0.000000
-22.560661 93.517218 0.000000 0.000000
-20.619973 93.517218 0.000000 0.000000
-18.679285 93.517218 0.000000 0.000000
-16.738597 93.517218 0.000000 0.000000
-14.797909 93.517218 9.986794 0.861818
-12.857221 93.517218 9.683914 1.144716
-10.916533 93.517218 9.508455 1.723611
-8.975845 93.517218 9.963094 1.351113
-7.035157 93.517218 9.916512 1.232857
-5.094469 93.517218 9.592131 1.736065
-3.153781 93.517218 9.276001 0.927147
-1.213093 93.517218 9.805384 -0.092484
0.727595 93.517218 10.405122 0.372878
2.668283 93.517218 10.515869 0.635373
4.608971 93.517218 8.605107 2.076250
6.549659 93.517218 9.814260 -0.054043
8.490347 93.517218 10.050472 0.101165
10.431035 93.517218 10.148577 1.206927
12.371723 93.517218 9.705851 1.725881
14.312411 93.517218 9.279883 1.571928
16.253099 93.517218 9.433996 1.414781
18.193787 93.517218 9.712685 1.512745
20.134475 93.517218 9.144003 2.430826
22.075163 93.517218 10.215055 2.621875
24.015851 93.517218 9.969411 1.949524
25.956539 93.517218 9.944125 1.356953
27.897227 93.517218 9.036464 1.072952
29.837915 93.517218 8.765799 0.853417
31.778603 93.517218 10.071721 0.886597
33.719291 93.517218 10.464980 0.607579
35.659979 93.517218 10.153243 1.198916
37.600667 93.517218 10.353661 2.100817
39.541355 93.517218 10.713195 1.775795
41.482043 93.517218 11.253798 0.399231
43.422731 93.517218 11.039387 -0.414778
45.363419 93.517218 10.735576 2.066049
47.304107 93.517218 11.022975 1.353847
49.244796 93.517218 10.322370 0.105771
51.185484 93.517218 10.656191 0.702305
53.126172 93.517218 10.959802 0.649178
55.066860 93.517218 10.743881 -0.438804
57.007548 93.517218 9.710818 -2.232928
58.948236 93.517218 0.000000 0.000000
60.888924 93.517218 0.000000 0.000000
62.829612 93.517218 0.000000 0.000000
64.770300 93.517218 11.037053 0.599546
66.710988 93.517218 11.004200 0.322467
68.651676 93.517218 11.096031 0.051952
70.592364 93.517218 11.030044 0.297003
72.533052 93.517218 11.106871 0.366155
74.473740 93.517218 10.214447 0.274377
76.414428 93.517218 9.673915 0.008680
78.355116 93.517218 10.230460 -0.674811
80.295804 93.517218 10.834781 -0.139298
82.236492 93.517218 10.896729 -0.076720
84.177180 93.517218 10.589077 -0.105128
86.117868 93.517218 10.086531 0.217233
88.058556 93.517218 10.629922 -0.062351
89.999244 93.517218 10.897853 -0.083302
91.939932 93.517218 10.884175 -0.209629
93.880620 93.517218 10.543868 -0.824099
95.821308 93.517218 10.602320 -0.519180
97.761996 93.517218 10.565797 -0.238295
99.702684 93.517218 10.841209 -0.308896
101.643372 93.517218 10.577315 -0.099830
103.584060 93.517218 10.851979 0.220373
105.524748 93.517218 11.028347 -0.266436
107.465436 93.517218 10.719259 -0.507422
109.406124 93.517218 10.693142 -0.142682
111.346812 93.517218 10.560538 0.028369
113.287500 93.517218 10.402304 -0.147773
115.228188 93.517218 10.486616 -0.301177
117.168876 93.517218 10.482691 -0.200202
119.109564 93.517218 10.362684 -0.193979
121.050252 93.517218 10.347489 -0.401973
122.990940 93.517218 10.123295 -0.551483
124.931628 93.517218 10.180869 -0.454716
126.872316 93.517218 10.402232 -0.408911
128.813004 93.517218 10.545607 -0.622215
130.753692 93.517218 10.472123 -0.677433
132.694380 93.517218 10.207133 -0.596623
134.635068 93.517218 10.460730 -0.408693
136.575756 93.517218 10.338027 -0.311236
138.516444 93.517218 10.245768 -0.412219
140.457132 93.517218 0.000000 0.000000
-55.552357 91.576530 8.814585 1.813289
-53.611669 91.576530 8.966758 1.505337
-51.670981 91.576530 9.056337 0.921345
-49.730293 91.576530 8.807807 0.586475
-47.789605 91.576530 9.161934 0.568226
-45.848917 91.576530 9.886017 0.462946
-43.908229 91.576530 9.635774 0.762569
-41.967541 91.576530 9.512791 1.369733
-40.026853 91.576530 9.284627 0.990430
-38.086165 91.576530 9.112128 0.320232
-36.145477 91.576530 0.000000 0.000000
-34.204789 91.576530 0.000000 0.000000
-32.264101 91.576530 0.000000 0.000000
-30.323413 91.576530 0.000000 0.000000
-28.382725 91.576530 0.000000 0.000000
-26.442037 91.576530 0.000000 0.000000
-24.501349 91.576530 0.000000 0.000000
-22.560661 91.576530 0.000000 0.000000
-20.619973 91.576530 0.000000 0.000000
-18.679285 91.576530 0.000000 0.000000
-16.738597 91.576530 0.000000 0.000000
-14.797909 91.576530 9.857931 1.044411
-12.857221 91.576530 9.694204 1.425864
-10.916533 91.576530 9.698864 1.362541
-8.975845 91.576530 9.871025 0.949159
-7.035157 91.576530 9.592486 1.205720
-5.094469 91.576530 9.068548 2.002339
-3.153781 91.576530 9.132788 1.704190
-1.213093 91.576530 9.785706 0.126062
0.727595 91.576530 10.714887 -0.353156
2.668283 91.576530 10.812582 0.601997
4.608971 91.576530 10.241287 1.017660
6.549659 91.576530 9.993240 0.635869
8.490347 91.576530 10.028153 0.498356
10.431035 91.576530 10.022471 1.233805
12.371723 91.576530 9.854911 1.291638
14.312411 91.576530 10.330717 1.190441
16.253099 91.576530 10.511564 1.232653
18.193787 91.576530 10.229132 0.597776
20.134475 91.576530 10.380147 -0.375526
22.075163 91.576530 10.113698 1.371935
24.015851 91.576530 10.031571 1.571899
25.956539 91.576530 10.062918 1.058223
27.897227 91.576530 10.193130 0.899512
29.837915 91.576530 11.355849 0.444100
31.778603 91.576530 11.354597 0.408706
33.719291 91.576530 10.202350 0.682824
35.659979 91.576530 10.086736 1.234998
37.600667 91.576530 10.645019 1.982637
39.541355 91.576530 10.881349 1.345405
41.482043 91.576530 11.043720 -0.324065
43.422731 91.576530 10.564150 -0.673195
45.363419 91.576530 10.600434 0.355144
47.304107 91.576530 10.815250 1.015800
49.244796 91.576530 10.610629 -0.065004
51.185484 91.576530 10.916681 -0.348914
53.126172 91.576530 10.693422 -0.625042
55.066860 91.576530 11.000492 -1.393284
57.007548 91.576530 11.291581 -0.207743
58.948236 91.576530 0.000000 0.000000
60.888924 91.576530 0.000000 0.000000
62.829612 91.576530 0.000000 0.000000
64.770300 91.576530 11.149226 0.448484
66.710988 91.576530 10.818130 0.185927
68.651676 91.576530 10.322715 -0.051745
70.592364 91.576530 10.727304 0.269520
72.533052 91.576530 11.232090 0.264634
74.473740 91.576530 10.563021 -0.287697
76.414428 91.576530 10.592843 -1.252936
78.355116 91.576530 10.952545 -0.536060
80.295804 91.576530 10.935911 -0.023209
82.236492 91.576530 10.789139 -0.300052
84.177180 91.576530 10.682280 -0.420401
86.117868 91.576530 10.412147 -0.007491
88.058556 91.576530 10.736387 1.027454
89.999244 91.576530 11.150042 0.042914
91.939932 91.576530 11.267939 -0.030865
93.880620 91.576530 11.146850 -0.361218
95.821308 91.576530 10.695733 -0.336432
97.761996 91.576530 10.636045 -0.255107
99.702684 91.576530 10.722595 -0.466657
101.643372 91.576530 10.584244 -0.483909
103.584060 91.576530 10.912276 -0.143393
105.524748 91.576530 10.913628 -0.335014
107.465436 91.576530 10.534986 -0.725674
109.406124 91.576530 10.601201 -0.265103
111.346812 91.576530 10.537338 -0.078654
113.287500 91.576530 10.305290 -0.334440
115.228188 91.576530 10.276348 -0.337435
117.168876 91.576530 10.585412 -0.218863
119.109564 91.576530 10.452931 -0.154224
121.050252 91.576530 10.078384 -0.341642
122.990940 91.576530 10.075994 -0.296917
124.931628 91.576530 10.345618 -0.271681
126.872316 91.576530 10.670047 -0.491013
128.813004 91.576530 10.787259 -0.396222
130.753692 91.576530 10.518865 -0.306848
132.694380 91.576530 9.761590 -0.286609
134.635068 91.576530 9.864685 -0.479962
136.575756 91.576530 10.454889 -0.575327
138.516444 91.576530 10.613230 -0.456340
140.457132 91.576530 0.000000 0.000000
-55.552357 89.635842 9.221821 2.049175
-53.611669 89.635842 8.875156 1.980415
-51.670981 89.635842 8.625235 1.400023
-49.730293 89.635842 9.035748 0.528243
-47.789605 89.635842 9.655269 0.131870
-45.848917 89.635842 9.744746 0.362188
-43.908229 89.635842 9.493621 1.074345
-41.967541 89.635842 9.663410 1.591562
-40.026853 89.635842 9.836250 1.280214
-38.086165 89.635842 9.808949 0.959989
-36.145477 89.635842 0.000000 0.000000
-34.204789 89.635842 0.000000 0.000000
-32.264101 89.635842 0.000000 0.000000
-30.323413 89.635842 0.000000 0.000000
-28.382725 89.635842 0.000000 0.000000
-26.442037 89.635842 0.000000 0.000000
-24.501349 89.635842 0.000000 0.000000
-22.560661 89.635842 0.000000 0.000000
-20.619973 89.635842 0.000000 0.000000
-18.679285 89.635842 0.000000 0.000000
-16.738597 89.635842 0.000000 0.000000
-14.797909 89.635842 9.804136 1.072497
-12.857221 89.635842 9.878409 1.037553
-10.916533 89.635842 9.623335 0.969493
-8.975845 89.635842 9.717642 0.704859
-7.035157 89.635842 9.627943 1.102344
-5.094469 89.635842 9.525621 1.529744
-3.153781 89.635842 9.718590 1.610151
-1.213093 89.635842 10.130787 0.454290
0.727595 89.635842 10.245356 0.325053
2.668283 89.635842 10.329884 0.634029
4.608971 89.635842 10.296682 0.740601
6.549659 89.635842 10.196043 0.829255
8.490347 89.635842 9.964465 0.340523
10.431035 89.635842 10.011624 0.795718
12.371723 89.635842 10.369420 1.394803
14.312411 89.635842 10.570172 1.077200
16.253099 89.635842 10.516895 0.851496
18.193787 89.635842 10.651620 0.368160
20.134475 89.635842 10.613369 0.358313
22.075163 89.635842 10.342402 1.085753
24.015851 89.635842 10.364645 1.262132