TITLE = "B00048"
VARIABLES = "position", "position(2)", "Vx", "Vy"
ZONE T="Frame 0", I=102, J=78
-55.552357 103.220658 0.000000 0.000000
-53.611669 103.220658 8.757665 2.166309
-51.670981 103.220658 11.298773 -0.209700
-49.730293 103.220658 9.631126 1.756194
-47.789605 103.220658 9.064982 0.822200
-45.848917 103.220658 9.404037 -0.572298
-43.908229 103.220658 9.635345 0.540569
-41.967541 103.220658 9.727650 1.264178
-40.026853 103.220658 8.974186 1.311460
-38.086165 103.220658 0.000000 0.000000
-36.145477 103.220658 0.000000 0.000000
-34.204789 103.220658 0.000000 0.000000
-32.264101 103.220658 0.000000 0.000000
-30.323413 103.220658 0.000000 0.000000
-28.382725 103.220658 0.000000 0.000000
-26.442037 103.220658 0.000000 0.000000
-24.501349 103.220658 0.000000 0.000000
-22.560661 103.220658 0.000000 0.000000
-20.619973 103.220658 0.000000 0.000000
-18.679285 103.220658 0.000000 0.000000
-16.738597 103.220658 0.000000 0.000000
-14.797909 103.220658 0.000000 0.000000
-12.857221 103.220658 9.842102 0.639461
-10.916533 103.220658 10.059224 0.473933
-8.975845 103.220658 9.993298 0.746673
-7.035157 103.220658 8.443344 0.386465
-5.094469 103.220658 8.630068 -0.277539
-3.153781 103.220658 9.226039 -0.304286
-1.213093 103.220658 9.599402 0.218638
0.727595 103.220658 9.373206 0.309033
2.668283 103.220658 9.393813 1.104890
4.608971 103.220658 9.613572 2.190386
6.549659 103.220658 9.703059 2.302681
8.490347 103.220658 10.392094 2.376058
10.431035 103.220658 11.696495 0.468242
12.371723 103.220658 10.146318 -0.296062
14.312411 103.220658 10.235085 0.257430
16.253099 103.220658 10.388686 1.317552
18.193787 103.220658 10.826774 -0.422767
20.134475 103.220658 10.874608 -0.810866
22.075163 103.220658 9.806545 -0.159882
24.015851 103.220658 9.627438 1.508173
25.956539 103.220658 10.287876 1.869971
27.897227 103.220658 11.218918 1.553868
29.837915 103.220658 10.347891 0.987406
31.778603 103.220658 9.343412 0.919215
33.719291 103.220658 9.311570 1.230403
35.659979 103.220658 11.548687 0.707800
37.600667 103.220658 9.417850 1.945185
39.541355 103.220658 9.626559 1.922274
41.482043 103.220658 8.754058 0.102586
43.422731 103.220658 11.087879 0.872356
45.363419 103.220658 12.453138 1.274720
47.304107 103.220658 12.714039 0.941472
49.244796 103.220658 11.242359 0.530671
51.185484 103.220658 10.502381 0.588724
53.126172 103.220658 10.017673 -0.080477
55.066860 103.220658 10.036332 -0.840999
57.007548 103.220658 0.000000 0.000000
58.948236 103.220658 0.000000 0.000000
60.888924 103.220658 0.000000 0.000000
62.829612 103.220658 0.000000 0.000000
64.770300 103.220658 0.000000 0.000000
66.710988 103.220658 12.202563 0.246538
68.651676 103.220658 11.570267 0.777118
70.592364 103.220658 9.978852 0.983635
72.533052 103.220658 9.696896 0.790632
74.473740 103.220658 10.063313 0.068329
76.414428 103.220658 10.316722 -0.157823
78.355116 103.220658 10.268022 -0.450194
80.295804 103.220658 10.104437 -0.117070
82.236492 103.220658 10.158337 -0.026977
84.177180 103.220658 10.723276 -0.435437
86.117868 103.220658 10.619772 -0.092232
88.058556 103.220658 10.269701 0.718232
89.999244 103.220658 10.656648 1.234578
91.939932 103.220658 10.530828 0.542104
93.880620 103.220658 10.025095 -0.021710
95.821308 103.220658 9.792257 0.048615
97.761996 103.220658 10.221668 0.255687
99.702684 103.220658 9.858979 0.234354
101.643372 103.220658 9.536821 -0.578737
103.584060 103.220658 10.754775 -1.046467
105.524748 103.220658 10.756347 -0.464109
107.465436 103.220658 9.940540 -0.253824
109.406124 103.220658 10.607935 -1.548408
111.346812 103.220658 11.657179 -0.086415
113.287500 103.220658 10.393666 0.582741
115.228188 103.220658 10.064944 0.268845
117.168876 103.220658 10.013101 -0.062618
119.109564 103.220658 9.918305 -0.242261
121.050252 103.220658 10.923412 -0.054206
122.990940 103.220658 10.968770 0.360988
124.931628 103.220658 9.914855 0.092260
126.872316 103.220658 11.775695 0.923083
128.813004 103.220658 9.783119 -1.445830
130.753692 103.220658 10.140663 -0.465617
132.694380 103.220658 10.149650 0.420614
134.635068 103.220658 9.907907 0.768381
136.575756 103.220658 10.028777 0.778213
138.516444 103.220658 10.213120 0.135784
140.457132 103.220658 0.000000 0.000000
-55.552357 101.279970 10.076550 0.718553
-53.611669 101.279970 10.612720 0.650996
-51.670981 101.279970 11.519364 -0.516958
-49.730293 101.279970 9.554195 1.400583
-47.789605 101.279970 8.957557 0.783832
-45.848917 101.279970 9.584473 -0.218433
-43.908229 101.279970 8.957711 0.662684
-41.967541 101.279970 9.126708 0.931720
-40.026853 101.279970 9.350681 0.947631
-38.086165 101.279970 0.000000 0.000000
-36.145477 101.279970 0.000000 0.000000
-34.204789 101.279970 0.000000 0.000000
-32.264101 101.279970 0.000000 0.000000
-30.323413 101.279970 0.000000 0.000000
-28.382725 101.279970 0.000000 0.000000
-26.442037 101.279970 0.000000 0.000000
-24.501349 101.279970 0.000000 0.000000
-22.560661 101.279970 0.000000 0.000000
-20.619973 101.279970 0.000000 0.000000
-18.679285 101.279970 0.000000 0.000000
-16.738597 101.279970 0.000000 0.000000
-14.797909 101.279970 9.660244 0.977279
-12.857221 101.279970 9.815380 0.613466
-10.916533 101.279970 9.775896 0.635549
-8.975845 101.279970 9.800818 0.924245
-7.035157 101.279970 8.846736 0.468262
-5.094469 101.279970 9.023102 -0.262273
-3.153781 101.279970 9.731521 -0.020735
-1.213093 101.279970 9.965535 0.651035
0.727595 101.279970 10.144153 0.497596
2.668283 101.279970 9.604680 0.473830
4.608971 101.279970 9.442674 1.691177
6.549659 101.279970 9.249349 1.765263
8.490347 101.279970 9.461138 1.489267
10.431035 101.279970 10.608302 0.893327
12.371723 101.279970 10.109127 -0.215311
14.312411 101.279970 10.113670 0.272412
16.253099 101.279970 10.353378 1.363922
18.193787 101.279970 10.276904 0.089248
20.134475 101.279970 10.474114 -0.260788
22.075163 101.279970 10.114684 1.346803
24.015851 101.279970 9.572077 2.152479
25.956539 101.279970 10.031024 2.275516
27.897227 101.279970 10.842072 1.962755
29.837915 101.279970 10.472246 1.256335
31.778603 101.279970 10.175929 0.936130
33.719291 101.279970 9.611496 1.017401
35.659979 101.279970 9.216703 1.990596
37.600667 101.279970 9.746018 2.202032
39.541355 101.279970 10.051947 1.768976
41.482043 101.279970 9.608645 0.476097
43.422731 101.279970 10.042989 0.138758
45.363419 101.279970 11.904447 1.582211
47.304107 101.279970 12.873793 0.718013
49.244796 101.279970 11.255348 0.325875
51.185484 101.279970 10.424135 0.691985
53.126172 101.279970 9.831690 0.445587
55.066860 101.279970 10.392411 0.338607
57.007548 101.279970 11.115554 1.046094
58.948236 101.279970 0.000000 0.000000
60.888924 101.279970 0.000000 0.000000
62.829612 101.279970 0.000000 0.000000
64.770300 101.279970 0.000000 0.000000
66.710988 101.279970 11.629947 0.230529
68.651676 101.279970 11.256299 0.605621
70.592364 101.279970 10.613916 0.451109
72.533052 101.279970 10.624902 0.249830
74.473740 101.279970 10.492053 0.218294
76.414428 101.279970 10.574025 -0.001177
78.355116 101.279970 11.102882 -0.104188
80.295804 101.279970 9.669839 -0.432453
82.236492 101.279970 10.263080 -0.723182
84.177180 101.279970 10.546234 -0.511783
86.117868 101.279970 10.511497 -0.011433
88.058556 101.279970 10.228202 0.525495
89.999244 101.279970 10.650665 1.075824
91.939932 101.279970 10.522033 0.093358
93.880620 101.279970 10.084355 -0.394266
95.821308 101.279970 10.039640 -0.166568
97.761996 101.279970 10.326426 0.059379
99.702684 101.279970 9.890667 0.003998
101.643372 101.279970 9.451705 -0.529853
103.584060 101.279970 10.440702 -0.779011
105.524748 101.279970 10.578887 -0.357636
107.465436 101.279970 10.247293 -0.145014
109.406124 101.279970 10.575543 0.083472
111.346812 101.279970 10.256027 0.404600
113.287500 101.279970 10.177305 0.139159
115.228188 101.279970 10.072836 -0.132186
117.168876 101.279970 9.918204 -0.437997
119.109564 101.279970 9.724697 -0.599174
121.050252 101.279970 10.414595 -0.011751
122.990940 101.279970 10.787345 0.303158
124.931628 101.279970 10.328237 0.335944
126.872316 101.279970 9.954816 -0.426973
128.813004 101.279970 9.790229 -0.532125
130.753692 101.279970 10.213632 -0.201723
132.694380 101.279970 10.451094 0.163467
134.635068 101.279970 10.234139 0.472038
136.575756 101.279970 10.195004 0.690543
138.516444 101.279970 9.863506 0.612588
140.457132 101.279970 0.000000 0.000000
-55.552357 99.339282 0.000000 0.000000
-53.611669 99.339282 11.141180 -0.312175
-51.670981 99.339282 10.996888 -0.519382
-49.730293 99.339282 8.596445 0.880518
-47.789605 99.339282 8.999739 1.009996
-45.848917 99.339282 9.264959 0.840366
-43.908229 99.339282 8.870059 0.778341
-41.967541 99.339282 8.807962 0.473398
-40.026853 99.339282 9.225151 0.323755
-38.086165 99.339282 0.000000 0.000000
-36.145477 99.339282 0.000000 0.000000
-34.204789 99.339282 0.000000 0.000000
-32.264101 99.339282 0.000000 0.000000
-30.323413 99.339282 0.000000 0.000000
-28.382725 99.339282 0.000000 0.000000
-26.442037 99.339282 0.000000 0.000000
-24.501349 99.339282 0.000000 0.000000
-22.560661 99.339282 0.000000 0.000000
-20.619973 99.339282 0.000000 0.000000
-18.679285 99.339282 0.000000 0.000000
-16.738597 99.339282 0.000000 0.000000
-14.797909 99.339282 9.580631 1.231197
-12.857221 99.339282 9.655676 0.897106
-10.916533 99.339282 9.543009 0.968364
-8.975845 99.339282 9.626495 0.856093
-7.035157 99.339282 9.621814 0.621495
-5.094469 99.339282 9.548987 0.767877
-3.153781 99.339282 9.658470 1.280107
-1.213093 99.339282 9.956811 2.453249
0.727595 99.339282 9.894911 0.214555
2.668283 99.339282 9.590292 0.066770
4.608971 99.339282 9.171179 0.823599
6.549659 99.339282 9.072097 0.841667
8.490347 99.339282 9.186106 0.754953
10.431035 99.339282 9.711188 1.420730
12.371723 99.339282 11.025276 1.258637
14.312411 99.339282 9.276063 -0.199933
16.253099 99.339282 0.000000 0.000000
18.193787 99.339282 9.376474 0.029566
20.134475 99.339282 9.350219 0.691132
22.075163 99.339282 10.141730 2.538860
24.015851 99.339282 10.277100 3.216436
25.956539 99.339282 10.046828 3.229119
27.897227 99.339282 9.298721 0.875493
29.837915 99.339282 10.112485 0.694390
31.778603 99.339282 11.161630 1.082274
33.719291 99.339282 11.692245 1.367222
35.659979 99.339282 9.991439 1.942592
37.600667 99.339282 10.744560 2.012848
39.541355 99.339282 0.000000 0.000000
41.482043 99.339282 9.598333 0.128464
43.422731 99.339282 8.894641 -0.419007
45.363419 99.339282 9.974166 -1.051747
47.304107 99.339282 9.365641 0.443081
49.244796 99.339282 10.293631 0.257017
51.185484 99.339282 10.329836 0.174696
53.126172 99.339282 10.949262 0.541186
55.066860 99.339282 10.662045 1.181831
57.007548 99.339282 10.951276 1.319083
58.948236 99.339282 0.000000 0.000000
60.888924 99.339282 0.000000 0.000000
62.829612 99.339282 0.000000 0.000000
64.770300 99.339282 0.000000 0.000000
66.710988 99.339282 10.889420 0.615740
68.651676 99.339282 10.800698 0.356720
70.592364 99.339282 11.187605 -0.072720
72.533052 99.339282 11.231782 -0.101238
74.473740 99.339282 10.885221 0.428953
76.414428 99.339282 11.003878 0.438542
78.355116 99.339282 11.719241 0.653814
80.295804 99.339282 11.660406 0.306428
82.236492 99.339282 10.773452 -1.057455
84.177180 99.339282 10.807090 -0.595658
86.117868 99.339282 10.803299 0.016703
88.058556 99.339282 10.583480 0.168974
89.999244 99.339282 10.177447 -0.702132
91.939932 99.339282 10.350495 -0.432895
93.880620 99.339282 10.031908 -0.506189
95.821308 99.339282 10.270205 -0.301099
97.761996 99.339282 11.093966 -0.079877
99.702684 99.339282 9.177161 -0.344445
101.643372 99.339282 9.735313 -0.500882
103.584060 99.339282 9.903568 0.237755
105.524748 99.339282 10.093273 0.367967
107.465436 99.339282 10.733827 -0.097894
109.406124 99.339282 10.416055 0.239752
111.346812 99.339282 9.824139 0.186087
113.287500 99.339282 10.065285 -0.176864
115.228188 99.339282 10.328494 -0.271215
117.168876 99.339282 10.174606 -0.111772
119.109564 99.339282 9.622420 0.071369
121.050252 99.339282 9.475557 -0.140603
122.990940 99.339282 10.336880 0.114997
124.931628 99.339282 10.539573 0.137135
126.872316 99.339282 10.340098 -0.068530
128.813004 99.339282 9.931954 -0.016207
130.753692 99.339282 10.030647 -0.065032
132.694380 99.339282 10.343724 -0.101690
134.635068 99.339282 10.431296 0.234999
136.575756 99.339282 10.372514 0.621217
138.516444 99.339282 9.880182 0.599447
140.457132 99.339282 0.000000 0.000000
-55.552357 97.398594 0.000000 0.000000
-53.611669 97.398594 0.000000 0.000000
-51.670981 97.398594 0.000000 0.000000
-49.730293 97.398594 9.524202 0.767958
-47.789605 97.398594 9.692580 1.071814
-45.848917 97.398594 9.471934 0.875910
-43.908229 97.398594 9.204382 0.610558
-41.967541 97.398594 9.063468 0.423655
-40.026853 97.398594 8.838392 0.453094
-38.086165 97.398594 0.000000 0.000000
-36.145477 97.398594 0.000000 0.000000
-34.204789 97.398594 0.000000 0.000000
-32.264101 97.398594 0.000000 0.000000
-30.323413 97.398594 0.000000 0.000000
-28.382725 97.398594 0.000000 0.000000
-26.442037 97.398594 0.000000 0.000000
-24.501349 97.398594 0.000000 0.000000
-22.560661 97.398594 0.000000 0.000000
-20.619973 97.398594 0.000000 0.000000
-18.679285 97.398594 0.000000 0.000000
-16.738597 97.398594 0.000000 0.000000
-14.797909 97.398594 9.577868 0.999872
-12.857221 97.398594 9.388701 0.930493
-10.916533 97.398594 9.215014 0.856725
-8.975845 97.398594 9.552126 0.833157
-7.035157 97.398594 9.950625 0.837289
-5.094469 97.398594 9.790056 1.056835
-3.153781 97.398594 9.378621 1.437442
-1.213093 97.398594 8.777446 1.754192
0.727595 97.398594 9.448928 0.773938
2.668283 97.398594 9.127286 0.497090
4.608971 97.398594 9.285174 1.004845
6.549659 97.398594 9.360163 0.917201
8.490347 97.398594 9.790733 1.135316
10.431035 97.398594 10.011512 2.587213
12.371723 97.398594 9.503274 1.528176
14.312411 97.398594 9.071629 0.916434
16.253099 97.398594 0.000000 0.000000
18.193787 97.398594 9.051662 -0.549567
20.134475 97.398594 9.365313 -0.200255
22.075163 97.398594 10.150424 3.157769
24.015851 97.398594 10.514465 3.259470
25.956539 97.398594 11.066890 1.365094
27.897227 97.398594 10.087750 0.356131
29.837915 97.398594 9.983522 0.531030
31.778603 97.398594 10.826539 0.441609
33.719291 97.398594 11.396189 0.235895
35.659979 97.398594 11.374120 0.198517
37.600667 97.398594 0.000000 0.000000
39.541355 97.398594 11.908130 0.226107
41.482043 97.398594 10.022628 0.698844
43.422731 97.398594 0.000000 0.000000
45.363419 97.398594 0.000000 0.000000
47.304107 97.398594 11.079905 1.259665
49.244796 97.398594 9.437621 -0.138573
51.185484 97.398594 11.419337 -0.045741
53.126172 97.398594 11.834146 -0.138653
55.066860 97.398594 11.406127 -0.096100
57.007548 97.398594 10.637997 0.309396
58.948236 97.398594 0.000000 0.000000
60.888924 97.398594 0.000000 0.000000
62.829612 97.398594 0.000000 0.000000
64.770300 97.398594 0.000000 0.000000
66.710988 97.398594 11.323084 0.627874
68.651676 97.398594 10.886046 0.565466
70.592364 97.398594 11.073748 0.261190
72.533052 97.398594 10.966789 0.539079
74.473740 97.398594 10.712929 0.303433
76.414428 97.398594 10.830279 0.186866
78.355116 97.398594 11.530056 0.302412
80.295804 97.398594 11.060431 -0.046607
82.236492 97.398594 10.801645 -0.559717
84.177180 97.398594 11.024459 -0.502352
86.117868 97.398594 11.212381 0.073715
88.058556 97.398594 10.725171 0.242433
89.999244 97.398594 10.301013 0.128998
91.939932 97.398594 10.202592 -0.447341
93.880620 97.398594 10.313754 -0.470476
95.821308 97.398594 10.222418 -0.105421
97.761996 97.398594 10.180410 -0.388745
99.702684 97.398594 10.327172 -0.679946
101.643372 97.398594 10.410771 0.192158
103.584060 97.398594 9.755868 0.226585
105.524748 97.398594 9.900520 -0.112702
107.465436 97.398594 10.237270 -0.155065
109.406124 97.398594 10.083138 -0.065934
111.346812 97.398594 9.769997 -0.154965
113.287500 97.398594 10.121419 -0.265358
115.228188 97.398594 10.457098 0.107376
117.168876 97.398594 10.168472 0.168659
119.109564 97.398594 9.807775 0.151989
121.050252 97.398594 9.998425 0.213439
122.990940 97.398594 10.258767 -0.016503
124.931628 97.398594 10.394613 -0.107837
126.872316 97.398594 10.490279 -0.205471
128.813004 97.398594 10.015302 -0.086191
130.753692 97.398594 9.759563 -0.240317
132.694380 97.398594 10.168485 -0.255242
134.635068 97.398594 10.297341 0.438039
136.575756 97.398594 10.536143 0.631380
138.516444 97.398594 10.696063 0.010630
140.457132 97.398594 0.000000 0.000000
-55.552357 95.457906 0.000000 0.000000
-53.611669 95.457906 10.683130 2.534570
-51.670981 95.457906 0.000000 0.000000
-49.730293 95.457906 9.599504 0.304270
-47.789605 95.457906 9.872404 1.166702
-45.848917 95.457906 9.824649 1.292318
-43.908229 95.457906 9.412377 0.736558
-41.967541 95.457906 9.323317 0.215343
-40.026853 95.457906 10.617994 -0.862014
-38.086165 95.457906 10.663363 -0.361309
-36.145477 95.457906 0.000000 0.000000
-34.204789 95.457906 0.000000 0.000000
-32.264101 95.457906 0.000000 0.000000
-30.323413 95.457906 0.000000 0.000000
-28.382725 95.457906 0.000000 0.000000
-26.442037 95.457906 0.000000 0.000000
-24.501349 95.457906 0.000000 0.000000
-22.560661 95.457906 0.000000 0.000000
-20.619973 95.457906 0.000000 0.000000
-18.679285 95.457906 0.000000 0.000000
-16.738597 95.457906 0.000000 0.000000
-14.797909 95.457906 9.192343 0.684389
-12.857221 95.457906 9.169845 0.819284
-10.916533 95.457906 9.117738 0.844024
-8.975845 95.457906 9.536674 0.985459
-7.035157 95.457906 10.081726 1.173322
-5.094469 95.457906 9.930535 1.335979
-3.153781 95.457906 9.455910 1.322166
-1.213093 95.457906 9.663710 0.827446
0.727595 95.457906 9.325001 1.130703
2.668283 95.457906 9.208942 1.459643
4.608971 95.457906 9.685206 1.612240
6.549659 95.457906 10.094632 1.038176
8.490347 95.457906 10.787385 1.833615
10.431035 95.457906 9.892194 2.658648
12.371723 95.457906 9.109080 1.811395
14.312411 95.457906 8.636821 1.993008
16.253099 95.457906 8.179092 1.561878
18.193787 95.457906 9.712831 0.719193
20.134475 95.457906 10.377956 0.454659
22.075163 95.457906 10.131159 1.635752
24.015851 95.457906 9.115607 1.805287
25.956539 95.457906 9.729926 1.572022
27.897227 95.457906 10.330150 1.569860
29.837915 95.457906 10.393654 1.334915
31.778603 95.457906 9.768692 0.929294
33.719291 95.457906 10.540045 0.932439
35.659979 95.457906 11.448937 0.734493
37.600667 95.457906 0.000000 0.000000
39.541355 95.457906 11.054645 0.263325
41.482043 95.457906 10.401483 0.589934
43.422731 95.457906 10.360687 0.516702
45.363419 95.457906 10.902916 0.374960
47.304107 95.457906 10.175438 -1.039081
49.244796 95.457906 10.367085 -0.166609
51.185484 95.457906 11.401471 0.334896
53.126172 95.457906 12.421974 0.049342
55.066860 95.457906 11.324461 0.296075
57.007548 95.457906 10.721055 1.161171
58.948236 95.457906 0.000000 0.000000
60.888924 95.457906 0.000000 0.000000
62.829612 95.457906 0.000000 0.000000
64.770300 95.457906 11.302722 -0.821124
66.710988 95.457906 11.502483 0.203346
68.651676 95.457906 11.160184 0.415305
70.592364 95.457906 10.790923 0.576772
72.533052 95.457906 10.860017 0.386583
74.473740 95.457906 10.656713 0.205664
76.414428 95.457906 10.836984 0.031240
78.355116 95.457906 11.240318 -0.134023
80.295804 95.457906 10.541938 0.002437
82.236492 95.457906 10.208420 -0.127897
84.177180 95.457906 10.330945 -0.095541
86.117868 95.457906 10.783529 0.353000
88.058556 95.457906 10.609074 0.486022
89.999244 95.457906 10.535136 0.138224
91.939932 95.457906 10.582297 -0.374909
93.880620 95.457906 11.052992 -0.670248
95.821308 95.457906 10.963448 -0.286076
97.761996 95.457906 10.640111 -0.162149
99.702684 95.457906 10.491718 -0.243097
101.643372 95.457906 10.648744 0.052353
103.584060 95.457906 10.128975 -0.504993
105.524748 95.457906 9.869721 -0.769536
107.465436 95.457906 9.904268 -0.482577
109.406124 95.457906 9.855330 -0.434094
111.346812 95.457906 9.991202 -0.497057
113.287500 95.457906 10.109673 -0.037711
115.228188 95.457906 10.417616 0.245226
117.168876 95.457906 10.146764 0.016720
119.109564 95.457906 9.635787 0.200426
121.050252 95.457906 9.818104 0.314866
122.990940 95.457906 10.050195 -0.353930
124.931628 95.457906 9.886662 -0.156484
126.872316 95.457906 9.764943 0.260535
128.813004 95.457906 9.873413 0.273389
130.753692 95.457906 10.242400 0.011862
132.694380 95.457906 10.166098 -0.060312
134.635068 95.457906 10.202480 0.276808
136.575756 95.457906 10.560410 0.202908
138.516444 95.457906 10.658439 -0.181365
140.457132 95.457906 0.000000 0.000000
-55.552357 93.517218 9.681215 2.148113
-53.611669 93.517218 9.581518 1.812835
-51.670981 93.517218 10.164007 0.198834
-49.730293 93.517218 9.630887 1.165186
-47.789605 93.517218 9.400105 1.416549
-45.848917 93.517218 9.594074 1.205627
-43.908229 93.517218 9.312437 0.668941
-41.967541 93.517218 9.990831 -0.420524
-40.026853 93.517218 10.386642 0.167022
-38.086165 93.517218 9.998341 1.328880
-36.145477 93.517218 0.000000 0.000000
-34.204789 93.517218 0.000000 0.000000
-32.264101 93.517218 0.000000 0.000000
-30.323413 93.517218 0.000000 0.000000
-28.382725 93.517218 0.000000 0.000000
-26.442037 93.517218 0.000000 0.000000
-24.501349 93.517218 0.000000 0.000000
-22.560661 93.517218 0.000000 0.000000
-20.619973 93.517218 0.000000 0.000000
-18.679285 93.517218 0.000000 0.000000
-16.738597 93.517218 0.000000 0.000000
-14.797909 93.517218 9.143418 0.719890
-12.857221 93.517218 9.266186 0.958253
-10.916533 93.517218 9.595342 1.273822
-8.975845 93.517218 9.588713 1.264405
-7.035157 93.517218 10.033576 1.090687
-5.094469 93.517218 9.988998 1.039030
-3.153781 93.517218 9.454039 0.621217
-1.213093 93.517218 10.189659 0.684258
0.727595 93.517218 9.971759 1.161629
2.668283 93.517218 9.884583 1.452212
4.608971 93.517218 10.038278 1.120062
6.549659 93.517218 10.451027 0.597732
8.490347 93.517218 11.219768 1.519440
10.431035 93.517218 9.985257 1.697055
12.371723 93.517218 9.473031 1.143589
14.312411 93.517218 9.366978 2.596880
16.253099 93.517218 8.948389 2.716001
18.193787 93.517218 11.016024 1.432718
20.134475 93.517218 10.712869 1.433482
22.075163 93.517218 9.749052 2.177030
24.015851 93.517218 9.202093 2.177904
25.956539 93.517218 9.356541 1.212908
27.897227 93.517218 10.091206 1.842221
29.837915 93.517218 10.378326 2.219047
31.778603 93.517218 9.611704 1.645272
33.719291 93.517218 9.707008 1.593177
35.659979 93.517218 11.773868 0.630268
37.600667 93.517218 11.424618 -0.176593
39.541355 93.517218 10.815784 0.133610
41.482043 93.517218 10.416882 0.797842
43.422731 93.517218 10.926731 0.832774
45.363419 93.517218 11.753798 0.604088
47.304107 93.517218 10.642964 -0.612409
49.244796 93.517218 10.381936 0.439409
51.185484 93.517218 12.147901 0.539201
53.126172 93.517218 11.997329 0.337383
55.066860 93.517218 11.216963 0.676542
57.007548 93.517218 10.975050 1.836549
58.948236 93.517218 0.000000 0.000000
60.888924 93.517218 0.000000 0.000000
62.829612 93.517218 0.000000 0.000000
64.770300 93.517218 10.285478 -0.506697
66.710988 93.517218 10.548450 -0.298953
68.651676 93.517218 10.711949 -0.283398
70.592364 93.517218 10.794735 -0.032435
72.533052 93.517218 10.922329 0.025337
74.473740 93.517218 10.725271 0.044110
76.414428 93.517218 10.929985 0.256250
78.355116 93.517218 11.137023 0.034147
80.295804 93.517218 10.604093 0.054412
82.236492 93.517218 10.302019 0.087962
84.177180 93.517218 10.418520 -0.068060
86.117868 93.517218 9.613706 0.261459
88.058556 93.517218 10.663716 0.180772
89.999244 93.517218 11.064187 -0.383580
91.939932 93.517218 10.963512 -0.914664
93.880620 93.517218 10.975244 -0.477177
95.821308 93.517218 10.845417 -0.123879
97.761996 93.517218 10.528545 0.274695
99.702684 93.517218 10.392036 -0.035173
101.643372 93.517218 10.502006 -0.696927
103.584060 93.517218 10.065794 -0.967943
105.524748 93.517218 9.904697 -1.034255
107.465436 93.517218 9.827689 -0.765907
109.406124 93.517218 9.873601 -0.660506
111.346812 93.517218 9.940770 -0.351203
113.287500 93.517218 9.990885 0.203733
115.228188 93.517218 10.384570 0.126072
117.168876 93.517218 10.191231 -0.039183
119.109564 93.517218 9.689796 0.174777
121.050252 93.517218 9.488070 0.152724
122.990940 93.517218 9.765016 -0.173835
124.931628 93.517218 9.826080 0.330784
126.872316 93.517218 9.695728 0.942237
128.813004 93.517218 9.771439 0.747933
130.753692 93.517218 10.061589 0.337313
132.694380 93.517218 10.125574 0.434717
134.635068 93.517218 10.354073 0.356552
136.575756 93.517218 10.491502 0.067665
138.516444 93.517218 10.367496 0.110996
140.457132 93.517218 0.000000 0.000000
-55.552357 91.576530 7.044810 1.342434
-53.611669 91.576530 8.154605 0.614470
-51.670981 91.576530 10.214643 1.802422
-49.730293 91.576530 9.385468 1.161079
-47.789605 91.576530 8.968829 1.196879
-45.848917 91.576530 9.440088 0.831511
-43.908229 91.576530 9.420533 0.064387
-41.967541 91.576530 9.933611 -0.042318
-40.026853 91.576530 10.698016 0.909141
-38.086165 91.576530 9.963202 2.047992
-36.145477 91.576530 0.000000 0.000000
-34.204789 91.576530 0.000000 0.000000
-32.264101 91.576530 0.000000 0.000000
-30.323413 91.576530 0.000000 0.000000
-28.382725 91.576530 0.000000 0.000000
-26.442037 91.576530 0.000000 0.000000
-24.501349 91.576530 0.000000 0.000000
-22.560661 91.576530 0.000000 0.000000
-20.619973 91.576530 0.000000 0.000000
-18.679285 91.576530 0.000000 0.000000
-16.738597 91.576530 0.000000 0.000000
-14.797909 91.576530 9.675385 0.695300
-12.857221 91.576530 9.435623 0.728356
-10.916533 91.576530 9.624929 1.128064
-8.975845 91.576530 9.496512 1.446994
-7.035157 91.576530 9.820480 1.096124
-5.094469 91.576530 9.847340 0.726456
-3.153781 91.576530 9.908195 0.707414
-1.213093 91.576530 10.537833 0.959337
0.727595 91.576530 10.306722 1.645401
2.668283 91.576530 9.831697 1.847809
4.608971 91.576530 9.886208 1.510462
6.549659 91.576530 9.720885 1.093428
8.490347 91.576530 9.800998 1.110939
10.431035 91.576530 9.784619 1.526481
12.371723 91.576530 9.768779 0.955296
14.312411 91.576530 9.681236 0.308271
16.253099 91.576530 10.230839 2.262187
18.193787 91.576530 11.577371 1.145429
20.134475 91.576530 10.967536 1.370697
22.075163 91.576530 9.940068 3.128817
24.015851 91.576530 9.387482 2.456338
25.956539 91.576530 10.126700 0.138584
27.897227 91.576530 10.131981 -0.224210
29.837915 91.576530 9.851275 0.036693
31.778603 91.576530 9.928589 0.611251
33.719291 91.576530 10.412024 1.051935
35.659979 91.576530 11.079944 0.094590
37.600667 91.576530 11.064525 -0.021448
39.541355 91.576530 10.714664 1.295800
41.482043 91.576530 10.524687 1.834285
43.422731 91.576530 10.851329 1.562267
45.363419 91.576530 11.014132 1.391167
47.304107 91.576530 11.082837 0.979669
49.244796 91.576530 11.413313 0.967678
51.185484 91.576530 11.970474 0.630590
53.126172 91.576530 11.190855 -0.301280
55.066860 91.576530 10.709733 -0.017487
57.007548 91.576530 13.188186 -0.083941
58.948236 91.576530 0.000000 0.000000
60.888924 91.576530 0.000000 0.000000
62.829612 91.576530 0.000000 0.000000
64.770300 91.576530 10.372478 -0.473654
66.710988 91.576530 10.197467 -0.037151
68.651676 91.576530 10.404670 0.087170
70.592364 91.576530 10.705195 -0.032600
72.533052 91.576530 10.704456 -0.047544
74.473740 91.576530 10.566958 -0.126848
76.414428 91.576530 10.890910 0.151578
78.355116 91.576530 11.181670 0.258675
80.295804 91.576530 10.970758 0.075719
82.236492 91.576530 10.596781 -0.486642
84.177180 91.576530 10.687273 -0.896754
86.117868 91.576530 10.126199 -0.714862
88.058556 91.576530 10.222695 -0.555447
89.999244 91.576530 11.166332 -1.478729
91.939932 91.576530 10.870683 -1.079141
93.880620 91.576530 10.657152 -0.188444
95.821308 91.576530 9.968145 -0.024554
97.761996 91.576530 9.960433 -0.015232
99.702684 91.576530 10.457184 -0.202443
101.643372 91.576530 10.273204 -0.639861
103.584060 91.576530 9.769486 -0.691533
105.524748 91.576530 10.057641 -0.046928
107.465436 91.576530 9.987059 -0.088147
109.406124 91.576530 9.686129 -0.401608
111.346812 91.576530 9.765157 -0.263990
113.287500 91.576530 10.005599 0.118049
115.228188 91.576530 10.155984 0.151326
117.168876 91.576530 10.248469 -0.016716
119.109564 91.576530 10.100621 0.009306
121.050252 91.576530 9.883819 0.191837
122.990940 91.576530 9.714487 0.192255
124.931628 91.576530 9.868914 0.245122
126.872316 91.576530 10.116231 0.952710
128.813004 91.576530 10.101269 0.910947
130.753692 91.576530 10.017623 0.440419
132.694380 91.576530 10.039229 0.792659
134.635068 91.576530 10.156141 0.982432
136.575756 91.576530 10.042965 0.337426
138.516444 91.576530 10.008833 0.280713
140.457132 91.576530 0.000000 0.000000
-55.552357 89.635842 0.000000 0.000000
-53.611669 89.635842 0.000000 0.000000
-51.670981 89.635842 9.388103 0.665161
-49.730293 89.635842 9.148653 0.745977
-47.789605 89.635842 8.735442 0.994264
-45.848917 89.635842 9.946027 0.751266
-43.908229 89.635842 9.460759 0.628949
-41.967541 89.635842 9.821754 0.447871
-40.026853 89.635842 9.839948 0.876396
-38.086165 89.635842 9.427402 1.073406
-36.145477 89.635842 0.000000 0.000000
-34.204789 89.635842 0.000000 0.000000
-32.264101 89.635842 0.000000 0.000000
-30.323413 89.635842 0.000000 0.000000
-28.382725 89.635842 0.000000 0.000000
-26.442037 89.635842 0.000000 0.000000
-24.501349 89.635842 0.000000 0.000000
-22.560661 89.635842 0.000000 0.000000
-20.619973 89.635842 0.000000 0.000000
-18.679285 89.635842 0.000000 0.000000
-16.738597 89.635842 0.000000 0.000000
-14.797909 89.635842 9.835858 0.985572
-12.857221 89.635842 9.450270 0.882892
-10.916533 89.635842 9.129607 0.370447
-8.975845 89.635842 9.560314 1.109406
-7.035157 89.635842 9.768204 1.462504
-5.094469 89.635842 9.886500 1.092027
-3.153781 89.635842 10.014117 1.071914
-1.213093 89.635842 10.143440 1.441442
0.727595 89.635842 10.103999 1.438286
2.668283 89.635842 9.577231 1.270449
4.608971 89.635842 9.750516 1.220941
6.549659 89.635842 9.768894 1.151047
8.490347 89.635842 9.731103 1.402657
10.431035 89.635842 10.232368 1.863808
12.371723 89.635842 10.019380 1.242572
14.312411 89.635842 10.196713 0.529363
16.253099 89.635842 10.870049 0.634219
18.193787 89.635842 10.929617 1.066858
20.134475 89.635842 10.421552 1.236049
22.075163 89.635842 9.733288 2.648927
24.015851 89.635842 9.982596 0.999263
25.956539 89.635842 10.241930 0.527484
27.897227 89.635842 10.189891 0.310611
29.837915 89.635842 10.075375 -0.392574