TITLE = "B00075"
VARIABLES = "position", "position(2)", "Vx", "Vy"
ZONE T="Frame 0", I=102, J=78
-55.552357 103.220658 0.000000 0.000000
-53.611669 103.220658 11.009652 0.227788
-51.670981 103.220658 0.000000 0.000000
-49.730293 103.220658 9.282020 0.364276
-47.789605 103.220658 8.541625 1.125864
-45.848917 103.220658 9.019978 1.680463
-43.908229 103.220658 9.265531 1.208190
-41.967541 103.220658 9.053009 1.154818
-40.026853 103.220658 8.819422 2.183765
-38.086165 103.220658 0.000000 0.000000
-36.145477 103.220658 0.000000 0.000000
-34.204789 103.220658 0.000000 0.000000
-32.264101 103.220658 0.000000 0.000000
-30.323413 103.220658 0.000000 0.000000
-28.382725 103.220658 0.000000 0.000000
-26.442037 103.220658 0.000000 0.000000
-24.501349 103.220658 0.000000 0.000000
-22.560661 103.220658 0.000000 0.000000
-20.619973 103.220658 0.000000 0.000000
-18.679285 103.220658 0.000000 0.000000
-16.738597 103.220658 0.000000 0.000000
-14.797909 103.220658 0.000000 0.000000
-12.857221 103.220658 9.555960 0.479907
-10.916533 103.220658 9.416935 0.471668
-8.975845 103.220658 9.123510 0.766397
-7.035157 103.220658 9.159098 0.562302
-5.094469 103.220658 9.285323 0.923612
-3.153781 103.220658 9.298452 1.744441
-1.213093 103.220658 10.770893 0.834022
0.727595 103.220658 10.275525 -0.113894
2.668283 103.220658 9.373874 0.370041
4.608971 103.220658 9.985632 1.185537
6.549659 103.220658 10.247267 1.748212
8.490347 103.220658 0.000000 0.000000
10.431035 103.220658 9.239847 3.043764
12.371723 103.220658 8.982169 2.227294
14.312411 103.220658 9.757332 1.393331
16.253099 103.220658 11.800970 -0.058411
18.193787 103.220658 9.744164 0.355506
20.134475 103.220658 9.583797 0.379488
22.075163 103.220658 10.243406 1.405518
24.015851 103.220658 10.519635 1.548385
25.956539 103.220658 11.128649 1.582997
27.897227 103.220658 11.105496 0.606871
29.837915 103.220658 10.351867 0.251798
31.778603 103.220658 11.333101 0.402256
33.719291 103.220658 12.005269 0.893491
35.659979 103.220658 10.750035 1.304275
37.600667 103.220658 10.290601 0.308674
39.541355 103.220658 9.230268 -1.209443
41.482043 103.220658 8.847147 0.634568
43.422731 103.220658 9.654408 1.234479
45.363419 103.220658 11.478807 -0.352392
47.304107 103.220658 11.104784 -0.300450
49.244796 103.220658 11.599644 0.186653
51.185484 103.220658 12.060079 0.497259
53.126172 103.220658 10.377616 -0.111516
55.066860 103.220658 10.144037 -0.725005
57.007548 103.220658 0.000000 0.000000
58.948236 103.220658 0.000000 0.000000
60.888924 103.220658 0.000000 0.000000
62.829612 103.220658 0.000000 0.000000
64.770300 103.220658 0.000000 0.000000
66.710988 103.220658 11.039174 -0.327004
68.651676 103.220658 10.580146 -0.610304
70.592364 103.220658 10.831532 -0.677552
72.533052 103.220658 11.598182 -0.716929
74.473740 103.220658 11.043030 -0.280098
76.414428 103.220658 10.179119 0.190870
78.355116 103.220658 10.835987 -0.951278
80.295804 103.220658 10.470194 -0.992295
82.236492 103.220658 10.011991 -0.091373
84.177180 103.220658 10.284588 0.127772
86.117868 103.220658 10.641223 -0.303737
88.058556 103.220658 10.444503 -0.187449
89.999244 103.220658 10.423941 0.056875
91.939932 103.220658 10.133358 0.249330
93.880620 103.220658 10.048196 -0.076854
95.821308 103.220658 9.935597 -0.409685
97.761996 103.220658 9.891127 -0.530859
99.702684 103.220658 9.662333 -0.257413
101.643372 103.220658 9.483268 0.122434
103.584060 103.220658 10.081595 0.096671
105.524748 103.220658 10.454717 -0.069225
107.465436 103.220658 9.814436 -0.289103
109.406124 103.220658 9.752029 -0.364145
111.346812 103.220658 9.931689 -0.415456
113.287500 103.220658 9.903483 -0.809029
115.228188 103.220658 10.454789 -0.534115
117.168876 103.220658 11.523225 0.213221
119.109564 103.220658 10.783731 0.033607
121.050252 103.220658 10.856884 0.326569
122.990940 103.220658 11.178888 0.724078
124.931628 103.220658 10.387030 -0.291992
126.872316 103.220658 10.320866 -0.784146
128.813004 103.220658 10.313824 -0.975081
130.753692 103.220658 10.134922 -1.615620
132.694380 103.220658 10.098310 -1.319432
134.635068 103.220658 10.528163 -0.406630
136.575756 103.220658 10.294935 -0.452585
138.516444 103.220658 9.834696 -0.532471
140.457132 103.220658 0.000000 0.000000
-55.552357 101.279970 11.038671 0.609948
-53.611669 101.279970 10.725912 -1.221676
-51.670981 101.279970 10.859878 -0.236177
-49.730293 101.279970 9.468421 0.766140
-47.789605 101.279970 8.723764 1.280858
-45.848917 101.279970 8.965783 1.616211
-43.908229 101.279970 9.148358 1.397484
-41.967541 101.279970 9.248347 0.791280
-40.026853 101.279970 8.782727 1.199638
-38.086165 101.279970 0.000000 0.000000
-36.145477 101.279970 0.000000 0.000000
-34.204789 101.279970 0.000000 0.000000
-32.264101 101.279970 0.000000 0.000000
-30.323413 101.279970 0.000000 0.000000
-28.382725 101.279970 0.000000 0.000000
-26.442037 101.279970 0.000000 0.000000
-24.501349 101.279970 0.000000 0.000000
-22.560661 101.279970 0.000000 0.000000
-20.619973 101.279970 0.000000 0.000000
-18.679285 101.279970 0.000000 0.000000
-16.738597 101.279970 0.000000 0.000000
-14.797909 101.279970 9.658435 0.763694
-12.857221 101.279970 9.704856 0.673496
-10.916533 101.279970 9.650120 0.845361
-8.975845 101.279970 9.300583 1.512853
-7.035157 101.279970 9.411784 0.959468
-5.094469 101.279970 9.454161 0.337787
-3.153781 101.279970 9.939858 0.866434
-1.213093 101.279970 10.168983 0.574329
0.727595 101.279970 9.655398 0.742482
2.668283 101.279970 9.647021 0.889470
4.608971 101.279970 10.237564 1.472888
6.549659 101.279970 10.538290 1.350584
8.490347 101.279970 9.914333 1.308009
10.431035 101.279970 8.931093 2.389086
12.371723 101.279970 8.885174 2.647750
14.312411 101.279970 9.376164 1.604963
16.253099 101.279970 10.246660 1.434916
18.193787 101.279970 10.207564 1.208645
20.134475 101.279970 9.637451 0.711136
22.075163 101.279970 9.619182 1.576302
24.015851 101.279970 10.183060 2.751990
25.956539 101.279970 10.473351 2.125678
27.897227 101.279970 10.671705 0.727907
29.837915 101.279970 9.725029 0.617449
31.778603 101.279970 10.091673 0.313005
33.719291 101.279970 10.690614 0.627331
35.659979 101.279970 10.286768 0.882798
37.600667 101.279970 10.233402 0.435152
39.541355 101.279970 10.358198 -0.529082
41.482043 101.279970 9.457031 0.637142
43.422731 101.279970 10.647512 0.273830
45.363419 101.279970 11.233196 -0.116809
47.304107 101.279970 10.787881 -0.167012
49.244796 101.279970 11.091256 0.135511
51.185484 101.279970 11.007379 0.680176
53.126172 101.279970 10.677192 -0.130357
55.066860 101.279970 10.690119 -0.468151
57.007548 101.279970 9.800427 0.861471
58.948236 101.279970 0.000000 0.000000
60.888924 101.279970 0.000000 0.000000
62.829612 101.279970 0.000000 0.000000
64.770300 101.279970 0.000000 0.000000
66.710988 101.279970 10.627493 0.036124
68.651676 101.279970 10.602060 -0.468636
70.592364 101.279970 10.680418 -0.720088
72.533052 101.279970 11.348966 -0.194098
74.473740 101.279970 10.715279 0.273148
76.414428 101.279970 10.182586 -0.052649
78.355116 101.279970 10.555493 -0.744287
80.295804 101.279970 9.995179 -0.799132
82.236492 101.279970 9.417315 -0.239985
84.177180 101.279970 10.388743 -0.335452
86.117868 101.279970 10.774289 -0.082938
88.058556 101.279970 10.491622 0.135101
89.999244 101.279970 10.266584 0.159812
91.939932 101.279970 10.199796 0.327192
93.880620 101.279970 10.234010 0.252114
95.821308 101.279970 10.479239 -0.136383
97.761996 101.279970 10.162297 -0.446022
99.702684 101.279970 9.923466 -0.305802
101.643372 101.279970 9.772725 0.128013
103.584060 101.279970 10.047169 0.256466
105.524748 101.279970 10.250180 0.036078
107.465436 101.279970 9.790433 0.161135
109.406124 101.279970 9.937828 0.113723
111.346812 101.279970 10.214392 -0.267116
113.287500 101.279970 9.856745 -0.381757
115.228188 101.279970 10.115042 0.012524
117.168876 101.279970 11.232265 -0.092866
119.109564 101.279970 10.588423 -0.193478
121.050252 101.279970 10.309655 -0.019501
122.990940 101.279970 10.482886 0.116362
124.931628 101.279970 10.541591 -0.253613
126.872316 101.279970 10.606962 -0.782223
128.813004 101.279970 10.692203 -0.649755
130.753692 101.279970 10.515215 -0.930246
132.694380 101.279970 10.346263 -0.792498
134.635068 101.279970 10.415535 -0.254074
136.575756 101.279970 10.175698 -0.226359
138.516444 101.279970 9.813242 -0.319472
140.457132 101.279970 0.000000 0.000000
-55.552357 99.339282 0.000000 0.000000
-53.611669 99.339282 11.522155 -0.896730
-51.670981 99.339282 10.342770 -0.527147
-49.730293 99.339282 8.530357 1.522693
-47.789605 99.339282 9.529697 0.946446
-45.848917 99.339282 8.931058 1.275110
-43.908229 99.339282 9.117741 0.927224
-41.967541 99.339282 8.864998 -0.747229
-40.026853 99.339282 8.978052 0.622786
-38.086165 99.339282 0.000000 0.000000
-36.145477 99.339282 0.000000 0.000000
-34.204789 99.339282 0.000000 0.000000
-32.264101 99.339282 0.000000 0.000000
-30.323413 99.339282 0.000000 0.000000
-28.382725 99.339282 0.000000 0.000000
-26.442037 99.339282 0.000000 0.000000
-24.501349 99.339282 0.000000 0.000000
-22.560661 99.339282 0.000000 0.000000
-20.619973 99.339282 0.000000 0.000000
-18.679285 99.339282 0.000000 0.000000
-16.738597 99.339282 0.000000 0.000000
-14.797909 99.339282 9.803993 1.005260
-12.857221 99.339282 9.818659 0.770256
-10.916533 99.339282 9.980343 0.673348
-8.975845 99.339282 9.923214 1.232300
-7.035157 99.339282 9.357619 0.830462
-5.094469 99.339282 9.388172 0.691282
-3.153781 99.339282 9.662245 0.728478
-1.213093 99.339282 10.830150 0.561500
0.727595 99.339282 10.180096 1.015021
2.668283 99.339282 9.732120 1.066289
4.608971 99.339282 10.472826 1.496371
6.549659 99.339282 10.052333 1.365316
8.490347 99.339282 8.978076 1.705948
10.431035 99.339282 8.722643 1.710168
12.371723 99.339282 8.044375 0.333007
14.312411 99.339282 9.075082 2.232965
16.253099 99.339282 10.043050 2.096494
18.193787 99.339282 10.198389 1.730617
20.134475 99.339282 8.411251 0.002627
22.075163 99.339282 8.659553 1.476065
24.015851 99.339282 8.602558 1.516341
25.956539 99.339282 9.505509 1.660186
27.897227 99.339282 10.208857 0.740269
29.837915 99.339282 10.754783 0.362667
31.778603 99.339282 10.564652 0.395864
33.719291 99.339282 10.407387 1.015565
35.659979 99.339282 10.614140 0.946826
37.600667 99.339282 10.687370 0.429643
39.541355 99.339282 10.401241 0.167737
41.482043 99.339282 9.363892 0.422818
43.422731 99.339282 9.509402 0.503902
45.363419 99.339282 10.911404 -0.400113
47.304107 99.339282 10.839133 -0.816887
49.244796 99.339282 9.597024 1.555209
51.185484 99.339282 10.363229 0.443847
53.126172 99.339282 10.668414 0.019028
55.066860 99.339282 10.945994 0.088333
57.007548 99.339282 10.103377 1.744838
58.948236 99.339282 0.000000 0.000000
60.888924 99.339282 0.000000 0.000000
62.829612 99.339282 0.000000 0.000000
64.770300 99.339282 0.000000 0.000000
66.710988 99.339282 10.221693 0.153532
68.651676 99.339282 10.509851 0.381413
70.592364 99.339282 10.533165 -0.219865
72.533052 99.339282 11.000921 -0.211128
74.473740 99.339282 10.952733 -0.052562
76.414428 99.339282 10.531499 -0.305165
78.355116 99.339282 10.316342 -0.501980
80.295804 99.339282 10.408499 -0.454030
82.236492 99.339282 10.495747 -0.272249
84.177180 99.339282 10.661960 0.084203
86.117868 99.339282 10.815987 0.426191
88.058556 99.339282 10.591099 0.459397
89.999244 99.339282 10.303607 0.193052
91.939932 99.339282 10.345085 0.154696
93.880620 99.339282 10.916604 0.313978
95.821308 99.339282 10.881977 0.072523
97.761996 99.339282 10.442254 -0.258630
99.702684 99.339282 10.218517 -0.156976
101.643372 99.339282 10.082233 -0.122414
103.584060 99.339282 10.138155 -0.043819
105.524748 99.339282 10.171968 -0.324395
107.465436 99.339282 10.112556 -0.128471
109.406124 99.339282 10.096219 0.191010
111.346812 99.339282 10.390068 0.027223
113.287500 99.339282 10.361637 -0.030743
115.228188 99.339282 10.465744 -0.367026
117.168876 99.339282 10.650455 -0.243153
119.109564 99.339282 10.597581 0.047416
121.050252 99.339282 10.371110 -0.015812
122.990940 99.339282 10.252979 -0.157240
124.931628 99.339282 10.372249 -0.358724
126.872316 99.339282 10.533945 -0.511554
128.813004 99.339282 10.736962 -0.529084
130.753692 99.339282 10.864320 -0.480851
132.694380 99.339282 10.701301 -0.160347
134.635068 99.339282 10.344945 -0.090622
136.575756 99.339282 10.146453 -0.030084
138.516444 99.339282 10.064692 -0.083879
140.457132 99.339282 0.000000 0.000000
-55.552357 97.398594 10.274708 0.332510
-53.611669 97.398594 10.330746 -0.511005
-51.670981 97.398594 9.683968 -0.587670
-49.730293 97.398594 9.775986 -0.419016
-47.789605 97.398594 9.282161 0.588879
-45.848917 97.398594 8.684445 1.068108
-43.908229 97.398594 8.992743 0.231024
-41.967541 97.398594 9.336790 -0.439652
-40.026853 97.398594 9.493279 -0.210849
-38.086165 97.398594 0.000000 0.000000
-36.145477 97.398594 0.000000 0.000000
-34.204789 97.398594 0.000000 0.000000
-32.264101 97.398594 0.000000 0.000000
-30.323413 97.398594 0.000000 0.000000
-28.382725 97.398594 0.000000 0.000000
-26.442037 97.398594 0.000000 0.000000
-24.501349 97.398594 0.000000 0.000000
-22.560661 97.398594 0.000000 0.000000
-20.619973 97.398594 0.000000 0.000000
-18.679285 97.398594 0.000000 0.000000
-16.738597 97.398594 0.000000 0.000000
-14.797909 97.398594 9.706174 1.109409
-12.857221 97.398594 9.722211 0.946440
-10.916533 97.398594 10.022819 0.637466
-8.975845 97.398594 10.248940 0.613481
-7.035157 97.398594 9.593497 0.903851
-5.094469 97.398594 8.966093 1.099329
-3.153781 97.398594 9.514223 0.557931
-1.213093 97.398594 10.376754 0.364298
0.727595 97.398594 10.115415 0.314812
2.668283 97.398594 10.159514 0.786930
4.608971 97.398594 10.224818 1.387903
6.549659 97.398594 9.381600 1.767362
8.490347 97.398594 9.040298 2.079748
10.431035 97.398594 8.930183 1.502026
12.371723 97.398594 8.978966 1.237214
14.312411 97.398594 10.309615 1.781718
16.253099 97.398594 10.573950 2.224934
18.193787 97.398594 10.047038 2.420979
20.134475 97.398594 10.942165 0.494935
22.075163 97.398594 10.621838 0.854954
24.015851 97.398594 8.481477 1.254209
25.956539 97.398594 9.379958 2.525338
27.897227 97.398594 10.169261 1.911029
29.837915 97.398594 10.397764 -0.159925
31.778603 97.398594 10.898658 -0.306050
33.719291 97.398594 11.203544 1.860311
35.659979 97.398594 11.327106 1.843642
37.600667 97.398594 11.137869 1.607585
39.541355 97.398594 10.217400 1.012075
41.482043 97.398594 10.034690 0.142845
43.422731 97.398594 10.012953 -0.452663
45.363419 97.398594 10.511581 -0.326477
47.304107 97.398594 10.993165 -0.152771
49.244796 97.398594 9.985328 0.069267
51.185484 97.398594 9.677610 -0.276058
53.126172 97.398594 0.000000 0.000000
55.066860 97.398594 11.108982 0.252615
57.007548 97.398594 10.815310 0.762444
58.948236 97.398594 0.000000 0.000000
60.888924 97.398594 0.000000 0.000000
62.829612 97.398594 0.000000 0.000000
64.770300 97.398594 0.000000 0.000000
66.710988 97.398594 9.934427 -0.380113
68.651676 97.398594 10.300566 0.486593
70.592364 97.398594 10.766977 0.329290
72.533052 97.398594 11.645583 -0.589171
74.473740 97.398594 11.347441 -0.416516
76.414428 97.398594 10.690807 -0.435412
78.355116 97.398594 10.387119 -0.364179
80.295804 97.398594 10.899682 -0.405875
82.236492 97.398594 11.045115 -0.102823
84.177180 97.398594 10.778021 0.500136
86.117868 97.398594 10.608047 0.797745
88.058556 97.398594 10.768702 -0.183303
89.999244 97.398594 10.688742 -0.368746
91.939932 97.398594 10.523783 -0.261298
93.880620 97.398594 11.038312 0.056441
95.821308 97.398594 11.040152 0.088022
97.761996 97.398594 10.750026 -0.365030
99.702684 97.398594 10.006737 -0.371664
101.643372 97.398594 10.079575 -0.207058
103.584060 97.398594 10.232977 -0.247670
105.524748 97.398594 10.436437 -0.464437
107.465436 97.398594 10.518140 -0.413951
109.406124 97.398594 10.309341 -0.311020
111.346812 97.398594 10.490185 -0.258940
113.287500 97.398594 10.651900 -0.364992
115.228188 97.398594 10.540534 -0.614676
117.168876 97.398594 10.503304 -0.390263
119.109564 97.398594 10.859279 0.181409
121.050252 97.398594 10.915100 0.251508
122.990940 97.398594 10.230848 -0.436160
124.931628 97.398594 10.209072 -0.602225
126.872316 97.398594 10.589564 -0.480902
128.813004 97.398594 10.458236 -0.540754
130.753692 97.398594 10.243621 -0.717145
132.694380 97.398594 10.333806 -0.485183
134.635068 97.398594 9.985527 -0.102402
136.575756 97.398594 10.182150 0.109380
138.516444 97.398594 10.286942 0.193899
140.457132 97.398594 0.000000 0.000000
-55.552357 95.457906 9.918709 0.866455
-53.611669 95.457906 9.236604 0.607077
-51.670981 95.457906 9.368092 0.174584
-49.730293 95.457906 9.916752 -0.028132
-47.789605 95.457906 9.361928 0.366745
-45.848917 95.457906 8.876935 0.972259
-43.908229 95.457906 8.798232 1.255574
-41.967541 95.457906 8.898986 0.629318
-40.026853 95.457906 9.519206 0.519369
-38.086165 95.457906 9.986636 0.641576
-36.145477 95.457906 0.000000 0.000000
-34.204789 95.457906 0.000000 0.000000
-32.264101 95.457906 0.000000 0.000000
-30.323413 95.457906 0.000000 0.000000
-28.382725 95.457906 0.000000 0.000000
-26.442037 95.457906 0.000000 0.000000
-24.501349 95.457906 0.000000 0.000000
-22.560661 95.457906 0.000000 0.000000
-20.619973 95.457906 0.000000 0.000000
-18.679285 95.457906 0.000000 0.000000
-16.738597 95.457906 0.000000 0.000000
-14.797909 95.457906 9.635806 1.099684
-12.857221 95.457906 9.693163 1.026433
-10.916533 95.457906 9.671688 0.535841
-8.975845 95.457906 9.624105 0.538486
-7.035157 95.457906 9.675607 0.736171
-5.094469 95.457906 9.519336 1.015124
-3.153781 95.457906 9.890881 1.038238
-1.213093 95.457906 9.874413 0.486516
0.727595 95.457906 10.179996 0.116340
2.668283 95.457906 10.680786 0.726191
4.608971 95.457906 9.734704 1.181134
6.549659 95.457906 8.928164 0.879432
8.490347 95.457906 9.693714 1.379169
10.431035 95.457906 10.402120 0.934865
12.371723 95.457906 10.225870 0.567250
14.312411 95.457906 10.970022 0.434667
16.253099 95.457906 10.964897 0.270511
18.193787 95.457906 12.170823 0.004118
20.134475 95.457906 10.241457 1.194336
22.075163 95.457906 10.169998 0.598371
24.015851 95.457906 8.928510 0.985971
25.956539 95.457906 9.631093 2.280783
27.897227 95.457906 9.864754 1.613313
29.837915 95.457906 9.681036 0.457428
31.778603 95.457906 9.795848 -0.157098
33.719291 95.457906 11.601141 0.686821
35.659979 95.457906 10.931244 1.906604
37.600667 95.457906 10.816157 2.217787
39.541355 95.457906 10.845810 1.754434
41.482043 95.457906 10.762785 0.423296
43.422731 95.457906 11.438778 -0.309049
45.363419 95.457906 11.704988 0.546831
47.304107 95.457906 11.434090 0.652141
49.244796 95.457906 10.534879 0.422950
51.185484 95.457906 10.342359 -0.357914
53.126172 95.457906 10.732190 -0.689018
55.066860 95.457906 11.472226 0.326879
57.007548 95.457906 12.631899 1.949237
58.948236 95.457906 0.000000 0.000000
60.888924 95.457906 0.000000 0.000000
62.829612 95.457906 0.000000 0.000000
64.770300 95.457906 10.590607 1.131827
66.710988 95.457906 10.270021 0.545232
68.651676 95.457906 10.663739 -0.006570
70.592364 95.457906 11.253172 0.034492
72.533052 95.457906 11.466843 -0.232253
74.473740 95.457906 11.156908 -0.207598
76.414428 95.457906 10.586366 -0.510218
78.355116 95.457906 10.432880 -0.535028
80.295804 95.457906 10.712507 -0.496891
82.236492 95.457906 10.924278 -0.153058
84.177180 95.457906 10.560966 0.434766
86.117868 95.457906 10.653776 -0.832970
88.058556 95.457906 10.885986 -0.664041
89.999244 95.457906 10.887541 -0.468190
91.939932 95.457906 10.701483 -0.313265
93.880620 95.457906 10.522903 -0.111133
95.821308 95.457906 10.513243 0.064378
97.761996 95.457906 10.923079 -0.116953
99.702684 95.457906 9.894358 -0.936429
101.643372 95.457906 10.201258 -0.457256
103.584060 95.457906 10.208080 -0.139358
105.524748 95.457906 10.506954 -0.196464
107.465436 95.457906 10.596596 -0.474501
109.406124 95.457906 10.327095 -0.552714
111.346812 95.457906 10.356870 -0.219367
113.287500 95.457906 10.600639 -0.240900
115.228188 95.457906 10.313725 -0.341172
117.168876 95.457906 10.525974 -0.302952
119.109564 95.457906 10.835972 -0.241075
121.050252 95.457906 10.480279 -0.196765
122.990940 95.457906 10.208042 -0.591821
124.931628 95.457906 10.391392 -0.515277
126.872316 95.457906 10.498802 -0.286597
128.813004 95.457906 10.208497 -0.383350
130.753692 95.457906 9.780336 -0.540244
132.694380 95.457906 9.596034 -0.758758
134.635068 95.457906 9.746182 -0.374104
136.575756 95.457906 9.987661 0.016077
138.516444 95.457906 10.088122 0.393096
140.457132 95.457906 0.000000 0.000000
-55.552357 93.517218 9.235092 -17.489265
-53.611669 93.517218 0.000000 0.000000
-51.670981 93.517218 8.441697 0.860487
-49.730293 93.517218 9.566932 0.632055
-47.789605 93.517218 10.277556 0.604708
-45.848917 93.517218 9.122227 1.242979
-43.908229 93.517218 9.299564 1.652223
-41.967541 93.517218 9.201954 1.198369
-40.026853 93.517218 9.572948 0.972027
-38.086165 93.517218 10.073883 0.930773
-36.145477 93.517218 0.000000 0.000000
-34.204789 93.517218 0.000000 0.000000
-32.264101 93.517218 0.000000 0.000000
-30.323413 93.517218 0.000000 0.000000
-28.382725 93.517218 0.000000 0.000000
-26.442037 93.517218 0.000000 0.000000
-24.501349 93.517218 0.000000 0.000000
-22.560661 93.517218 0.000000 0.000000
-20.619973 93.517218 0.000000 0.000000
-18.679285 93.517218 0.000000 0.000000
-16.738597 93.517218 0.000000 0.000000
-14.797909 93.517218 9.652566 0.875430
-12.857221 93.517218 9.690416 0.956095
-10.916533 93.517218 9.170869 0.691111
-8.975845 93.517218 8.836872 0.851015
-7.035157 93.517218 9.259947 1.082143
-5.094469 93.517218 10.326624 1.908419
-3.153781 93.517218 0.000000 0.000000
-1.213093 93.517218 0.000000 0.000000
0.727595 93.517218 10.683490 -0.036420
2.668283 93.517218 10.035402 0.924578
4.608971 93.517218 9.773280 1.567506
6.549659 93.517218 9.841869 1.326844
8.490347 93.517218 9.900353 1.664816
10.431035 93.517218 10.338277 1.444067
12.371723 93.517218 10.396437 0.874790
14.312411 93.517218 10.332659 -0.217768
16.253099 93.517218 11.383675 -0.429909
18.193787 93.517218 9.659949 1.079886
20.134475 93.517218 10.580951 0.746281
22.075163 93.517218 10.438937 -0.486286
24.015851 93.517218 10.568777 -0.557097
25.956539 93.517218 10.451549 -0.480134
27.897227 93.517218 10.409272 0.235546
29.837915 93.517218 9.991778 0.316381
31.778603 93.517218 9.940787 0.098880
33.719291 93.517218 11.365250 0.736541
35.659979 93.517218 10.831596 1.532130
37.600667 93.517218 10.239962 1.550865
39.541355 93.517218 10.528112 1.352656
41.482043 93.517218 11.403910 0.893178
43.422731 93.517218 11.731812 0.895107
45.363419 93.517218 11.408588 0.583096
47.304107 93.517218 11.807414 0.768265
49.244796 93.517218 12.262288 0.522134
51.185484 93.517218 10.845213 -0.529866
53.126172 93.517218 10.905130 -0.229610
55.066860 93.517218 12.129663 1.032964
57.007548 93.517218 10.853267 -0.211381
58.948236 93.517218 0.000000 0.000000
60.888924 93.517218 0.000000 0.000000
62.829612 93.517218 0.000000 0.000000
64.770300 93.517218 12.010771 0.386405
66.710988 93.517218 11.362322 0.510783
68.651676 93.517218 10.881996 0.069898
70.592364 93.517218 11.080935 -0.122235
72.533052 93.517218 10.987426 -0.065252
74.473740 93.517218 10.991491 -0.055826
76.414428 93.517218 10.958819 -0.521172
78.355116 93.517218 11.054699 -1.340429
80.295804 93.517218 10.786818 -0.815539
82.236492 93.517218 10.945907 -0.180049
84.177180 93.517218 10.674689 -0.496701
86.117868 93.517218 10.526508 -1.138726
88.058556 93.517218 10.948650 -0.531818
89.999244 93.517218 11.146436 -0.368215
91.939932 93.517218 10.822365 -0.342734
93.880620 93.517218 10.298848 0.025252
95.821308 93.517218 10.106786 0.267907
97.761996 93.517218 10.515107 0.264772
99.702684 93.517218 10.517306 -0.097763
101.643372 93.517218 10.464919 -0.389868
103.584060 93.517218 10.100092 -0.193910
105.524748 93.517218 10.406299 -0.064734
107.465436 93.517218 10.597653 -0.135726
109.406124 93.517218 10.418120 -0.292884
111.346812 93.517218 10.282045 -0.248503
113.287500 93.517218 10.392379 -0.087442
115.228188 93.517218 10.272120 -0.176309
117.168876 93.517218 10.604777 -0.338512
119.109564 93.517218 10.428600 -0.486445
121.050252 93.517218 9.979041 -0.218821
122.990940 93.517218 10.002734 0.110444
124.931628 93.517218 10.090911 0.187919
126.872316 93.517218 9.919005 -0.229567
128.813004 93.517218 9.915755 -0.277173
130.753692 93.517218 9.749694 -0.126099
132.694380 93.517218 9.619207 -0.346094
134.635068 93.517218 9.851859 -0.357875
136.575756 93.517218 9.922737 -0.112404
138.516444 93.517218 10.294278 0.139110
140.457132 93.517218 0.000000 0.000000
-55.552357 91.576530 8.725529 -17.669449
-53.611669 91.576530 9.145447 0.558972
-51.670981 91.576530 8.865019 0.325531
-49.730293 91.576530 9.366887 1.040202
-47.789605 91.576530 9.641069 0.366801
-45.848917 91.576530 9.553986 0.685853
-43.908229 91.576530 9.674687 1.326520
-41.967541 91.576530 9.671990 1.139881
-40.026853 91.576530 9.523170 0.853861
-38.086165 91.576530 9.553413 0.901512
-36.145477 91.576530 0.000000 0.000000
-34.204789 91.576530 0.000000 0.000000
-32.264101 91.576530 0.000000 0.000000
-30.323413 91.576530 0.000000 0.000000
-28.382725 91.576530 0.000000 0.000000
-26.442037 91.576530 0.000000 0.000000
-24.501349 91.576530 0.000000 0.000000
-22.560661 91.576530 0.000000 0.000000
-20.619973 91.576530 0.000000 0.000000
-18.679285 91.576530 0.000000 0.000000
-16.738597 91.576530 0.000000 0.000000
-14.797909 91.576530 9.571636 0.644805
-12.857221 91.576530 9.562361 0.919315
-10.916533 91.576530 9.012525 1.042683
-8.975845 91.576530 8.585872 1.012854
-7.035157 91.576530 9.253724 1.298686
-5.094469 91.576530 9.784636 1.138872
-3.153781 91.576530 10.148146 0.816776
-1.213093 91.576530 10.066749 -0.183010
0.727595 91.576530 10.876450 1.882413
2.668283 91.576530 9.949062 1.489598
4.608971 91.576530 9.886210 1.482714
6.549659 91.576530 10.215923 1.318861
8.490347 91.576530 10.061646 1.516927
10.431035 91.576530 10.153337 1.825786
12.371723 91.576530 9.958808 2.240098
14.312411 91.576530 9.970227 2.012498
16.253099 91.576530 8.461872 1.161307
18.193787 91.576530 9.521952 1.095621
20.134475 91.576530 10.476480 1.007265
22.075163 91.576530 10.397914 -0.398775
24.015851 91.576530 10.986761 -0.700786
25.956539 91.576530 10.720245 0.365746
27.897227 91.576530 10.138951 0.514995
29.837915 91.576530 10.304473 0.407947
31.778603 91.576530 10.326333 0.527548
33.719291 91.576530 10.663569 1.127452
35.659979 91.576530 10.961031 1.681169
37.600667 91.576530 9.496582 1.283442
39.541355 91.576530 10.950282 -0.102535
41.482043 91.576530 11.512690 1.078275
43.422731 91.576530 11.093585 2.028262
45.363419 91.576530 9.990851 1.299548
47.304107 91.576530 10.635721 -0.354132
49.244796 91.576530 9.976544 1.993069
51.185484 91.576530 10.137033 -0.469277
53.126172 91.576530 10.860058 0.050398
55.066860 91.576530 11.868121 0.602256
57.007548 91.576530 10.883473 0.103894
58.948236 91.576530 0.000000 0.000000
60.888924 91.576530 0.000000 0.000000
62.829612 91.576530 0.000000 0.000000
64.770300 91.576530 11.099371 -1.052803
66.710988 91.576530 11.197220 -0.147313
68.651676 91.576530 10.597600 0.241026
70.592364 91.576530 10.664547 -0.196731
72.533052 91.576530 11.028478 -0.022737
74.473740 91.576530 10.784916 0.296790
76.414428 91.576530 10.727882 -0.315073
78.355116 91.576530 10.667225 -0.613257
80.295804 91.576530 10.908438 -0.120808
82.236492 91.576530 10.950486 -0.226238
84.177180 91.576530 10.734069 -0.670343
86.117868 91.576530 10.638464 -0.700616
88.058556 91.576530 11.080646 -0.224678
89.999244 91.576530 11.048862 -0.017357
91.939932 91.576530 10.676753 -0.235344
93.880620 91.576530 10.552600 -0.124016
95.821308 91.576530 10.150112 0.058567
97.761996 91.576530 10.274184 0.102618
99.702684 91.576530 10.298876 0.254649
101.643372 91.576530 10.032443 0.236106
103.584060 91.576530 9.925993 -0.070995
105.524748 91.576530 10.264360 0.339821
107.465436 91.576530 10.304232 0.040680
109.406124 91.576530 10.499214 -0.143123
111.346812 91.576530 10.538590 -0.439793
113.287500 91.576530 9.943478 -0.437237
115.228188 91.576530 10.139542 -0.444492
117.168876 91.576530 10.563387 -0.599537
119.109564 91.576530 10.398650 -0.250931
121.050252 91.576530 10.091904 -0.030146
122.990940 91.576530 10.011936 -0.089948
124.931628 91.576530 10.023128 -0.174025
126.872316 91.576530 10.036622 -0.193988
128.813004 91.576530 10.261850 -0.359688
130.753692 91.576530 10.339151 -0.330832
132.694380 91.576530 10.210868 -0.096216
134.635068 91.576530 10.157120 -0.180357
136.575756 91.576530 10.005443 -0.376345
138.516444 91.576530 10.603782 -0.280155
140.457132 91.576530 0.000000 0.000000
-55.552357 89.635842 0.000000 0.000000
-53.611669 89.635842 10.432034 1.446431
-51.670981 89.635842 9.808066 1.191686
-49.730293 89.635842 8.303607 0.434826
-47.789605 89.635842 9.203140 0.170875
-45.848917 89.635842 9.430036 0.416413
-43.908229 89.635842 9.594992 0.973361
-41.967541 89.635842 9.538718 0.813637
-40.026853 89.635842 9.332145 0.632501
-38.086165 89.635842 9.411349 0.791747
-36.145477 89.635842 0.000000 0.000000
-34.204789 89.635842 0.000000 0.000000
-32.264101 89.635842 0.000000 0.000000
-30.323413 89.635842 0.000000 0.000000
-28.382725 89.635842 0.000000 0.000000
-26.442037 89.635842 0.000000 0.000000
-24.501349 89.635842 0.000000 0.000000
-22.560661 89.635842 0.000000 0.000000
-20.619973 89.635842 0.000000 0.000000
-18.679285 89.635842 0.000000 0.000000
-16.738597 89.635842 0.000000 0.000000
-14.797909 89.635842 9.740646 0.494459
-12.857221 89.635842 9.553145 0.792393
-10.916533 89.635842 9.331142 0.790854
-8.975845 89.635842 9.402837 0.587481
-7.035157 89.635842 9.657220 0.653116
-5.094469 89.635842 9.796881 0.744083
-3.153781 89.635842 9.740978 1.123913
-1.213093 89.635842 9.660056 1.300151
0.727595 89.635842 9.700301 1.150609
2.668283 89.635842 9.965960 1.407976
4.608971 89.635842 9.801135 1.565288
6.549659 89.635842 10.023148 1.144291
8.490347 89.635842 9.988985 0.970570
10.431035 89.635842 10.360383 0.735935
12.371723 89.635842 10.506734 1.585348
14.312411 89.635842 10.270978 1.054642
16.253099 89.635842 9.005932 1.331402
18.193787 89.635842 9.627855 1.241321
20.134475 89.635842 10.349433 1.157849
22.075163 89.635842 10.138101 0.607770
24.015851 89.635842 10.352389 0.542769