TITLE = "B00004"
VARIABLES = "position", "position(2)", "RMS Vx"
ZONE T="Frame 1" I=102, J=78, F=POINT
-55.552399 103.221001 0.000000
-53.611710 103.221001 8.647608
-51.671021 103.221001 13.134145
-49.730328 103.221001 11.558730
-47.789639 103.221001 5.662801
-45.848949 103.221001 4.854021
-43.908257 103.221001 1.967388
-41.967567 103.221001 1.153123
-40.026878 103.221001 2.138218
-38.086189 103.221001 2.534611
-36.145500 103.221001 18.464766
-34.204807 103.221001 3.042408
-32.264118 103.221001 22.037973
-30.323429 103.221001 32.553764
-28.382738 103.221001 3.174710
-26.442047 103.221001 22.386547
-24.501358 103.221001 10.857465
-22.560669 103.221001 13.301328
-20.619980 103.221001 12.392601
-18.679287 103.221001 4.222962
-16.738598 103.221001 0.623342
-14.797909 103.221001 0.812166
-12.857216 103.221001 0.326461
-10.916527 103.221001 0.543386
-8.975838 103.221001 0.941152
-7.035149 103.221001 1.546858
-5.094460 103.221001 1.290028
-3.153767 103.221001 0.908307
-1.213078 103.221001 1.149560
0.727612 103.221001 1.452295
2.668304 103.221001 1.667880
4.608994 103.221001 1.365063
6.549683 103.221001 1.223655
8.490372 103.221001 0.835745
10.431061 103.221001 0.779257
12.371750 103.221001 1.003970
14.312439 103.221001 1.371611
16.253136 103.221001 1.336205
18.193825 103.221001 4.950858
20.134514 103.221001 5.361953
22.075203 103.221001 2.687763
24.015892 103.221001 1.814242
25.956581 103.221001 1.938661
27.897270 103.221001 1.247734
29.837967 103.221001 0.987078
31.778656 103.221001 1.155001
33.719345 103.221001 1.113218
35.660034 103.221001 1.024986
37.600723 103.221001 1.843137
39.541412 103.221001 1.573462
41.482101 103.221001 1.184723
43.422791 103.221001 1.358569
45.363480 103.221001 1.282240
47.304176 103.221001 1.420106
49.244865 103.221001 1.318689
51.185555 103.221001 0.917245
53.126244 103.221001 0.723598
55.066933 103.221001 1.645510
57.007622 103.221001 1.391683
58.948311 103.221001 5.208399
60.889008 103.221001 13.880561
62.829697 103.221001 0.000000
64.770386 103.221001 0.000000
66.711075 103.221001 6.386400
68.651764 103.221001 1.511865
70.592453 103.221001 0.792686
72.533142 103.221001 0.664519
74.473831 103.221001 0.887910
76.414520 103.221001 0.805790
78.355209 103.221001 0.732787
80.295898 103.221001 0.623094
82.236588 103.221001 1.145800
84.177277 103.221001 0.906237
86.117981 103.221001 0.514656
88.058670 103.221001 0.755783
89.999359 103.221001 0.613283
91.940048 103.221001 0.769631
93.880737 103.221001 0.856110
95.821426 103.221001 0.952825
97.762115 103.221001 0.745000
99.702805 103.221001 0.796649
101.643494 103.221001 0.684097
103.584183 103.221001 0.580446
105.524872 103.221001 0.648942
107.465561 103.221001 0.910897
109.406250 103.221001 0.487299
111.346939 103.221001 0.550762
113.287628 103.221001 0.699076
115.228333 103.221001 0.617005
117.169022 103.221001 0.657341
119.109711 103.221001 0.853961
121.050400 103.221001 0.806056
122.991089 103.221001 0.791524
124.931778 103.221001 0.810041
126.872467 103.221001 0.878658
128.813156 103.221001 0.516342
130.753845 103.221001 0.715851
132.694534 103.221001 0.722476
134.635223 103.221001 0.692658
136.575912 103.221001 0.597424
138.516602 103.221001 1.114932
140.457291 103.221001 0.000000
-55.552399 101.280312 9.200769
-53.611710 101.280312 10.644377
-51.671021 101.280312 13.534656
-49.730328 101.280312 0.751827
-47.789639 101.280312 6.155951
-45.848949 101.280312 2.154009
-43.908257 101.280312 1.075376
-41.967567 101.280312 1.123901
-40.026878 101.280312 1.074305
-38.086189 101.280312 2.195370
-36.145500 101.280312 0.000000
-34.204807 101.280312 16.657995
-32.264118 101.280312 6.876698
-30.323429 101.280312 19.448303
-28.382738 101.280312 9.811152
-26.442047 101.280312 19.016912
-24.501358 101.280312 22.145279
-22.560669 101.280312 26.543631
-20.619980 101.280312 15.917206
-18.679287 101.280312 3.064312
-16.738598 101.280312 0.461749
-14.797909 101.280312 0.318931
-12.857216 101.280312 0.367972
-10.916527 101.280312 0.306356
-8.975838 101.280312 0.655768
-7.035149 101.280312 0.845466
-5.094460 101.280312 0.899428
-3.153767 101.280312 0.995353
-1.213078 101.280312 0.788224
0.727612 101.280312 1.005118
2.668304 101.280312 1.256941
4.608994 101.280312 1.049406
6.549683 101.280312 1.182280
8.490372 101.280312 0.940064
10.431061 101.280312 0.690361
12.371750 101.280312 0.779564
14.312439 101.280312 1.470452
16.253136 101.280312 1.330006
18.193825 101.280312 1.653533
20.134514 101.280312 3.644623
22.075203 101.280312 2.221794
24.015892 101.280312 2.041208
25.956581 101.280312 0.957815
27.897270 101.280312 0.795081
29.837967 101.280312 0.940746
31.778656 101.280312 1.253530
33.719345 101.280312 1.863101
35.660034 101.280312 1.262257
37.600723 101.280312 0.958405
39.541412 101.280312 1.099488
41.482101 101.280312 0.936633
43.422791 101.280312 0.982616
45.363480 101.280312 0.962766
47.304176 101.280312 1.138825
49.244865 101.280312 0.899991
51.185555 101.280312 0.708307
53.126244 101.280312 0.817996
55.066933 101.280312 1.118496
57.007622 101.280312 1.281094
58.948311 101.280312 4.167525
60.889008 101.280312 11.733562
62.829697 101.280312 0.000000
64.770386 101.280312 0.000000
66.711075 101.280312 12.165565
68.651764 101.280312 1.053916
70.592453 101.280312 0.836707
72.533142 101.280312 0.460792
74.473831 101.280312 0.579175
76.414520 101.280312 0.728948
78.355209 101.280312 0.442315
80.295898 101.280312 0.572131
82.236588 101.280312 0.928294
84.177277 101.280312 0.737218
86.117981 101.280312 0.469188
88.058670 101.280312 0.488566
89.999359 101.280312 0.379704
91.940048 101.280312 0.667322
93.880737 101.280312 0.486274
95.821426 101.280312 0.470956
97.762115 101.280312 0.648965
99.702805 101.280312 0.657400
101.643494 101.280312 0.576967
103.584183 101.280312 0.458436
105.524872 101.280312 0.458330
107.465561 101.280312 0.480707
109.406250 101.280312 0.340091
111.346939 101.280312 0.378641
113.287628 101.280312 0.605426
115.228333 101.280312 0.489267
117.169022 101.280312 0.370355
119.109711 101.280312 0.425563
121.050400 101.280312 0.455181
122.991089 101.280312 0.478890
124.931778 101.280312 0.620839
126.872467 101.280312 0.410309
128.813156 101.280312 0.645328
130.753845 101.280312 0.569963
132.694534 101.280312 0.651040
134.635223 101.280312 0.526069
136.575912 101.280312 0.456546
138.516602 101.280312 0.480972
140.457291 101.280312 0.000000
-55.552399 99.339622 0.612649
-53.611710 99.339622 2.045838
-51.671021 99.339622 7.753018
-49.730328 99.339622 2.223700
-47.789639 99.339622 2.204961
-45.848949 99.339622 4.994934
-43.908257 99.339622 5.336572
-41.967567 99.339622 0.822785
-40.026878 99.339622 0.892907
-38.086189 99.339622 1.767501
-36.145500 99.339622 10.711340
-34.204807 99.339622 10.597787
-32.264118 99.339622 16.765759
-30.323429 99.339622 10.211089
-28.382738 99.339622 21.488066
-26.442047 99.339622 5.032082
-24.501358 99.339622 7.375614
-22.560669 99.339622 8.853970
-20.619980 99.339622 12.083625
-18.679287 99.339622 2.013310
-16.738598 99.339622 0.442517
-14.797909 99.339622 0.300578
-12.857216 99.339622 0.332836
-10.916527 99.339622 0.538955
-8.975838 99.339622 0.661441
-7.035149 99.339622 0.598494
-5.094460 99.339622 0.780039
-3.153767 99.339622 0.898939
-1.213078 99.339622 0.819702
0.727612 99.339622 0.926693
2.668304 99.339622 0.805717
4.608994 99.339622 0.698859
6.549683 99.339622 0.617989
8.490372 99.339622 0.753538
10.431061 99.339622 0.748986
12.371750 99.339622 0.777681
14.312439 99.339622 1.242014
16.253136 99.339622 1.243740
18.193825 99.339622 1.312152
20.134514 99.339622 3.789571
22.075203 99.339622 1.314477
24.015892 99.339622 0.870931
25.956581 99.339622 0.905519
27.897270 99.339622 0.944758
29.837967 99.339622 1.065657
31.778656 99.339622 0.853357
33.719345 99.339622 1.705097
35.660034 99.339622 1.878220
37.600723 99.339622 1.345660
39.541412 99.339622 0.964023
41.482101 99.339622 1.252251
43.422791 99.339622 1.115065
45.363480 99.339622 1.093273
47.304176 99.339622 0.985671
49.244865 99.339622 0.721925
51.185555 99.339622 1.021467
53.126244 99.339622 1.229418
55.066933 99.339622 1.642581
57.007622 99.339622 1.231217
58.948311 99.339622 0.000000
60.889008 99.339622 0.000000
62.829697 99.339622 0.000000
64.770386 99.339622 0.000000
66.711075 99.339622 0.000000
68.651764 99.339622 1.852191
70.592453 99.339622 1.108945
72.533142 99.339622 0.811824
74.473831 99.339622 0.830644
76.414520 99.339622 0.645003
78.355209 99.339622 0.622397
80.295898 99.339622 0.744584
82.236588 99.339622 0.865840
84.177277 99.339622 0.495875
86.117981 99.339622 0.607141
88.058670 99.339622 0.476725
89.999359 99.339622 0.551690
91.940048 99.339622 0.572587
93.880737 99.339622 0.430274
95.821426 99.339622 0.469692
97.762115 99.339622 0.629202
99.702805 99.339622 0.564864
101.643494 99.339622 0.392479
103.584183 99.339622 0.470901
105.524872 99.339622 0.641470
107.465561 99.339622 0.628718
109.406250 99.339622 0.414860
111.346939 99.339622 0.408181
113.287628 99.339622 0.436087
115.228333 99.339622 0.448199
117.169022 99.339622 0.338252
119.109711 99.339622 0.286195
121.050400 99.339622 0.387356
122.991089 99.339622 0.425709
124.931778 99.339622 0.492646
126.872467 99.339622 0.447974
128.813156 99.339622 0.381773
130.753845 99.339622 0.625789
132.694534 99.339622 0.496900
134.635223 99.339622 0.382408
136.575912 99.339622 0.383988
138.516602 99.339622 0.467988
140.457291 99.339622 0.000000
-55.552399 97.398933 10.146105
-53.611710 97.398933 3.521033
-51.671021 97.398933 6.610837
-49.730328 97.398933 10.512970
-47.789639 97.398933 4.190044
-45.848949 97.398933 3.963010
-43.908257 97.398933 0.757515
-41.967567 97.398933 0.740215
-40.026878 97.398933 0.907615
-38.086189 97.398933 0.000000
-36.145500 97.398933 0.000000
-34.204807 97.398933 0.000000
-32.264118 97.398933 0.000000
-30.323429 97.398933 0.000000
-28.382738 97.398933 0.000000
-26.442047 97.398933 9.368758
-24.501358 97.398933 3.143514
-22.560669 97.398933 15.969112
-20.619980 97.398933 10.497644
-18.679287 97.398933 1.099839
-16.738598 97.398933 0.438433
-14.797909 97.398933 0.351906
-12.857216 97.398933 0.281046
-10.916527 97.398933 0.340550
-8.975838 97.398933 0.372432
-7.035149 97.398933 0.435312
-5.094460 97.398933 0.946825
-3.153767 97.398933 0.813413
-1.213078 97.398933 0.576215
0.727612 97.398933 0.756460
2.668304 97.398933 0.749310
4.608994 97.398933 0.620969
6.549683 97.398933 0.786905
8.490372 97.398933 0.838334
10.431061 97.398933 0.768737
12.371750 97.398933 1.058208
14.312439 97.398933 1.944252
16.253136 97.398933 1.500348
18.193825 97.398933 3.790131
20.134514 97.398933 2.830264
22.075203 97.398933 3.787445
24.015892 97.398933 0.910368
25.956581 97.398933 0.756806
27.897270 97.398933 0.686691
29.837967 97.398933 0.647490
31.778656 97.398933 1.075755
33.719345 97.398933 1.101603
35.660034 97.398933 1.704877
37.600723 97.398933 1.513662
39.541412 97.398933 1.131040
41.482101 97.398933 1.093291
43.422791 97.398933 1.290043
45.363480 97.398933 1.229569
47.304176 97.398933 0.929190
49.244865 97.398933 0.905391
51.185555 97.398933 0.885583
53.126244 97.398933 1.369389
55.066933 97.398933 1.190994
57.007622 97.398933 1.378440
58.948311 97.398933 0.000000
60.889008 97.398933 0.000000
62.829697 97.398933 0.000000
64.770386 97.398933 0.000000
66.711075 97.398933 0.000000
68.651764 97.398933 0.000000
70.592453 97.398933 0.964588
72.533142 97.398933 0.523372
74.473831 97.398933 0.619542
76.414520 97.398933 0.967058
78.355209 97.398933 0.770443
80.295898 97.398933 0.906334
82.236588 97.398933 0.838170
84.177277 97.398933 0.478433
86.117981 97.398933 0.617595
88.058670 97.398933 0.629026
89.999359 97.398933 0.627564
91.940048 97.398933 0.495764
93.880737 97.398933 0.568214
95.821426 97.398933 0.560427
97.762115 97.398933 0.447533
99.702805 97.398933 0.329655
101.643494 97.398933 0.531809
103.584183 97.398933 0.590091
105.524872 97.398933 0.546096
107.465561 97.398933 0.547770
109.406250 97.398933 0.492330
111.346939 97.398933 0.413007
113.287628 97.398933 0.321085
115.228333 97.398933 0.317177
117.169022 97.398933 0.353100
119.109711 97.398933 0.302847
121.050400 97.398933 0.634352
122.991089 97.398933 0.634317
124.931778 97.398933 0.517552
126.872467 97.398933 0.439340
128.813156 97.398933 0.397606
130.753845 97.398933 0.400044
132.694534 97.398933 0.555539
134.635223 97.398933 0.283331
136.575912 97.398933 0.268400
138.516602 97.398933 0.466357
140.457291 97.398933 0.000000
-55.552399 95.458237 7.923422
-53.611710 95.458237 4.152231
-51.671021 95.458237 8.184863
-49.730328 95.458237 7.488603
-47.789639 95.458237 0.804069
-45.848949 95.458237 0.990877
-43.908257 95.458237 0.856549
-41.967567 95.458237 0.900902
-40.026878 95.458237 0.685895
-38.086189 95.458237 0.000000
-36.145500 95.458237 0.000000
-34.204807 95.458237 0.000000
-32.264118 95.458237 0.000000
-30.323429 95.458237 0.000000
-28.382738 95.458237 0.000000
-26.442047 95.458237 0.000000
-24.501358 95.458237 0.000000
-22.560669 95.458237 0.000000
-20.619980 95.458237 0.000000
-18.679287 95.458237 0.000000
-16.738598 95.458237 0.434426
-14.797909 95.458237 0.336989
-12.857216 95.458237 0.470956
-10.916527 95.458237 0.534077
-8.975838 95.458237 0.427527
-7.035149 95.458237 0.424222
-5.094460 95.458237 0.670883
-3.153767 95.458237 0.953360
-1.213078 95.458237 0.772769
0.727612 95.458237 0.741245
2.668304 95.458237 1.042504
4.608994 95.458237 0.778427
6.549683 95.458237 0.679331
8.490372 95.458237 1.160564
10.431061 95.458237 0.851486
12.371750 95.458237 0.749526
14.312439 95.458237 0.991538
16.253136 95.458237 0.938683
18.193825 95.458237 1.204724
20.134514 95.458237 1.933788
22.075203 95.458237 1.066079
24.015892 95.458237 0.826391
25.956581 95.458237 0.701443
27.897270 95.458237 0.617744
29.837967 95.458237 0.503213
31.778656 95.458237 1.183137
33.719345 95.458237 1.046866
35.660034 95.458237 1.217567
37.600723 95.458237 1.414535
39.541412 95.458237 1.475470
41.482101 95.458237 0.834881
43.422791 95.458237 1.123382
45.363480 95.458237 0.910596
47.304176 95.458237 0.766138
49.244865 95.458237 0.754733
51.185555 95.458237 1.008894
53.126244 95.458237 1.044217
55.066933 95.458237 1.003449
57.007622 95.458237 1.324615
58.948311 95.458237 0.000000
60.889008 95.458237 0.000000
62.829697 95.458237 0.000000
64.770386 95.458237 0.000000
66.711075 95.458237 0.000000
68.651764 95.458237 0.000000
70.592453 95.458237 0.887273
72.533142 95.458237 0.661952
74.473831 95.458237 0.763182
76.414520 95.458237 0.803341
78.355209 95.458237 0.859582
80.295898 95.458237 1.013319
82.236588 95.458237 0.789094
84.177277 95.458237 0.791163
86.117981 95.458237 0.970368
88.058670 95.458237 0.749019
89.999359 95.458237 0.674297
91.940048 95.458237 0.452568
93.880737 95.458237 0.632631
95.821426 95.458237 0.498592
97.762115 95.458237 0.356393
99.702805 95.458237 0.347585
101.643494 95.458237 0.483934
103.584183 95.458237 0.536575
105.524872 95.458237 0.361126
107.465561 95.458237 0.327534
109.406250 95.458237 0.401286
111.346939 95.458237 0.366960
113.287628 95.458237 0.369061
115.228333 95.458237 0.337123
117.169022 95.458237 0.288602
119.109711 95.458237 0.449653
121.050400 95.458237 0.518111
122.991089 95.458237 0.717344
124.931778 95.458237 0.595777
126.872467 95.458237 0.378078
128.813156 95.458237 0.307100
130.753845 95.458237 0.447486
132.694534 95.458237 0.517709
134.635223 95.458237 0.487929
136.575912 95.458237 0.486134
138.516602 95.458237 0.504254
140.457291 95.458237 0.000000
-55.552399 93.517548 1.189870
-53.611710 93.517548 0.878551
-51.671021 93.517548 2.553985
-49.730328 93.517548 3.794930
-47.789639 93.517548 3.694459
-45.848949 93.517548 1.249802
-43.908257 93.517548 0.741811
-41.967567 93.517548 0.768371
-40.026878 93.517548 0.650678
-38.086189 93.517548 0.000000
-36.145500 93.517548 0.000000
-34.204807 93.517548 0.000000
-32.264118 93.517548 0.000000
-30.323429 93.517548 0.000000
-28.382738 93.517548 0.000000
-26.442047 93.517548 0.000000
-24.501358 93.517548 0.000000
-22.560669 93.517548 0.000000
-20.619980 93.517548 0.000000
-18.679287 93.517548 0.000000
-16.738598 93.517548 0.400225
-14.797909 93.517548 0.415658
-12.857216 93.517548 0.483498
-10.916527 93.517548 0.534511
-8.975838 93.517548 0.563294
-7.035149 93.517548 0.654633
-5.094460 93.517548 0.882152
-3.153767 93.517548 0.785901
-1.213078 93.517548 1.198291
0.727612 93.517548 1.310174
2.668304 93.517548 0.669894
4.608994 93.517548 0.672486
6.549683 93.517548 0.984199
8.490372 93.517548 1.045424
10.431061 93.517548 0.985420
12.371750 93.517548 0.848004
14.312439 93.517548 0.772304
16.253136 93.517548 1.124275
18.193825 93.517548 0.770711
20.134514 93.517548 0.995007
22.075203 93.517548 0.910017
24.015892 93.517548 1.029830
25.956581 93.517548 0.995558
27.897270 93.517548 0.769272
29.837967 93.517548 0.983744
31.778656 93.517548 1.039655
33.719345 93.517548 0.896680
35.660034 93.517548 0.690093
37.600723 93.517548 0.699085
39.541412 93.517548 1.038542
41.482101 93.517548 0.836920
43.422791 93.517548 0.739062
45.363480 93.517548 0.913989
47.304176 93.517548 0.867870
49.244865 93.517548 0.941824
51.185555 93.517548 0.830230
53.126244 93.517548 0.927499
55.066933 93.517548 0.756966
57.007622 93.517548 1.048094
58.948311 93.517548 0.000000
60.889008 93.517548 0.000000
62.829697 93.517548 0.000000
64.770386 93.517548 0.000000
66.711075 93.517548 0.000000
68.651764 93.517548 0.000000
70.592453 93.517548 0.689192
72.533142 93.517548 0.733999
74.473831 93.517548 0.723437
76.414520 93.517548 0.681095
78.355209 93.517548 0.795725
80.295898 93.517548 0.710446
82.236588 93.517548 0.579937
84.177277 93.517548 0.763465
86.117981 93.517548 0.893485
88.058670 93.517548 0.723451
89.999359 93.517548 0.551205
91.940048 93.517548 0.558249
93.880737 93.517548 0.448222
95.821426 93.517548 0.502050
97.762115 93.517548 0.362192
99.702805 93.517548 0.386502
101.643494 93.517548 0.553035
103.584183 93.517548 0.633177
105.524872 93.517548 0.646187
107.465561 93.517548 0.526746
109.406250 93.517548 0.495953
111.346939 93.517548 0.503679
113.287628 93.517548 0.565095
115.228333 93.517548 0.391720
117.169022 93.517548 0.272434
119.109711 93.517548 0.397060
121.050400 93.517548 0.430517
122.991089 93.517548 0.441589
124.931778 93.517548 0.381314
126.872467 93.517548 0.306994
128.813156 93.517548 0.402818
130.753845 93.517548 0.498747
132.694534 93.517548 0.447877
134.635223 93.517548 0.496775
136.575912 93.517548 0.501182
138.516602 93.517548 0.667411
140.457291 93.517548 0.000000
-55.552399 91.576859 1.319702
-53.611710 91.576859 1.709545
-51.671021 91.576859 3.834730
-49.730328 91.576859 2.363200
-47.789639 91.576859 1.145626
-45.848949 91.576859 0.853242
-43.908257 91.576859 0.559955
-41.967567 91.576859 0.904382
-40.026878 91.576859 0.737285
-38.086189 91.576859 0.000000
-36.145500 91.576859 0.000000
-34.204807 91.576859 0.000000
-32.264118 91.576859 0.000000
-30.323429 91.576859 0.000000
-28.382738 91.576859 0.000000
-26.442047 91.576859 0.000000
-24.501358 91.576859 0.000000
-22.560669 91.576859 0.000000
-20.619980 91.576859 0.000000
-18.679287 91.576859 0.000000
-16.738598 91.576859 0.340711
-14.797909 91.576859 0.394164
-12.857216 91.576859 0.434837
-10.916527 91.576859 0.603456
-8.975838 91.576859 0.490222
-7.035149 91.576859 0.530358
-5.094460 91.576859 0.761995
-3.153767 91.576859 0.922355
-1.213078 91.576859 1.380760
0.727612 91.576859 1.057945
2.668304 91.576859 0.928703
4.608994 91.576859 0.744582
6.549683 91.576859 0.871829
8.490372 91.576859 0.480867
10.431061 91.576859 0.748010
12.371750 91.576859 0.770853
14.312439 91.576859 0.579758
16.253136 91.576859 0.896651
18.193825 91.576859 0.862542
20.134514 91.576859 0.911953
22.075203 91.576859 0.721123
24.015892 91.576859 0.636928
25.956581 91.576859 0.734620
27.897270 91.576859 0.558271
29.837967 91.576859 0.570871
31.778656 91.576859 0.752112
33.719345 91.576859 0.503097
35.660034 91.576859 0.625400
37.600723 91.576859 0.534007
39.541412 91.576859 0.700746
41.482101 91.576859 0.725365
43.422791 91.576859 0.804283
45.363480 91.576859 0.818587
47.304176 91.576859 0.800679
49.244865 91.576859 0.606602
51.185555 91.576859 0.511268
53.126244 91.576859 0.832308
55.066933 91.576859 1.124527
57.007622 91.576859 0.853303
58.948311 91.576859 0.000000
60.889008 91.576859 0.000000
62.829697 91.576859 0.000000
64.770386 91.576859 0.000000
66.711075 91.576859 0.000000
68.651764 91.576859 0.000000
70.592453 91.576859 0.667205
72.533142 91.576859 0.559099
74.473831 91.576859 0.661288
76.414520 91.576859 0.640799
78.355209 91.576859 0.515030
80.295898 91.576859 0.921015
82.236588 91.576859 0.804752
84.177277 91.576859 0.761798
86.117981 91.576859 0.482079
88.058670 91.576859 0.692546
89.999359 91.576859 0.621329
91.940048 91.576859 0.350809
93.880737 91.576859 0.473713
95.821426 91.576859 0.502859
97.762115 91.576859 0.568322
99.702805 91.576859 0.529514
101.643494 91.576859 0.557653
103.584183 91.576859 0.326633
105.524872 91.576859 0.573874
107.465561 91.576859 0.508616
109.406250 91.576859 0.638038
111.346939 91.576859 0.471192
113.287628 91.576859 0.639462
115.228333 91.576859 0.448274
117.169022 91.576859 0.346945
119.109711 91.576859 0.334991
121.050400 91.576859 0.333111
122.991089 91.576859 0.248896
124.931778 91.576859 0.461735
126.872467 91.576859 0.419711
128.813156 91.576859 0.379060
130.753845 91.576859 0.440206
132.694534 91.576859 0.409625
134.635223 91.576859 0.478008
136.575912 91.576859 0.287308
138.516602 91.576859 0.506107
140.457291 91.576859 0.000000
-55.552399 89.636169 2.536547
-53.611710 89.636169 0.955501
-51.671021 89.636169 3.617330
-49.730328 89.636169 2.236140
-47.789639 89.636169 0.783268
-45.848949 89.636169 0.735009
-43.908257 89.636169 0.679041
-41.967567 89.636169 0.673808
-40.026878 89.636169 0.622735
-38.086189 89.636169 0.819249
-36.145500 89.636169 0.000000
-34.204807 89.636169 0.000000
-32.264118 89.636169 0.000000
-30.323429 89.636169 0.000000
-28.382738 89.636169 0.000000
-26.442047 89.636169 0.000000
-24.501358 89.636169 0.000000
-22.560669 89.636169 0.000000
-20.619980 89.636169 0.000000
-18.679287 89.636169 0.000000
-16.738598 89.636169 0.302088
-14.797909 89.636169 0.405431
-12.857216 89.636169 0.543491
-10.916527 89.636169 0.756270
-8.975838 89.636169 0.685461
-7.035149 89.636169 0.622150
-5.094460 89.636169 0.691658
-3.153767 89.636169 0.777259
-1.213078 89.636169 0.741355
0.727612 89.636169 0.573544
2.668304 89.636169 0.491597
4.608994 89.636169 0.645918
6.549683 89.636169 0.749725
8.490372 89.636169 0.534459
10.431061 89.636169 0.530808
12.371750 89.636169 0.684616
14.312439 89.636169 0.552067
16.253136 89.636169 0.679239
18.193825 89.636169 0.404324
20.134514 89.636169 0.395181
22.075203 89.636169 0.541264
24.015892 89.636169 0.565518
25.956581 89.636169 0.698743
27.897270 89.636169 0.646844
29.837967 89.636169 0.453823
31.778656 89.636169 0.379687
33.719345 89.636169 0.413309
35.660034 89.636169 0.547960
37.600723 89.636169 0.623935
39.541412 89.636169 0.672488
41.482101 89.636169 0.683612
43.422791 89.636169 0.563908
45.363480 89.636169 0.489609
47.304176 89.636169 0.484953
49.244865 89.636169 0.533964
51.185555 89.636169 0.500525
53.126244 89.636169 0.724409
55.066933 89.636169 1.017251
57.007622 89.636169 0.928167
58.948311 89.636169 0.000000
60.889008 89.636169 0.000000
62.829697 89.636169 0.000000
64.770386 89.636169 0.000000
66.711075 89.636169 0.000000
68.651764 89.636169 0.000000
70.592453 89.636169 0.704411
72.533142 89.636169 0.567045
74.473831 89.636169 0.718901
76.414520 89.636169 0.721721
78.355209 89.636169 0.502962
80.295898 89.636169 0.782337
82.236588 89.636169 0.926027
84.177277 89.636169 0.672976
86.117981 89.636169 0.620651
88.058670 89.636169 0.521394
89.999359 89.636169 0.456506
91.940048 89.636169 0.343785
93.880737 89.636169 0.369328
95.821426 89.636169 0.442584
97.762115 89.636169 0.524440
99.702805 89.636169 0.432544
101.643494 89.636169 0.333416
103.584183 89.636169 0.425270
105.524872 89.636169 0.476566
107.465561 89.636169 0.435613
109.406250 89.636169 0.317863
111.346939 89.636169 0.496386
113.287628 89.636169 0.555557
115.228333 89.636169 0.528795
117.169022 89.636169 0.418638
119.109711 89.636169 0.379902
121.050400 89.636169 0.246635
122.991089 89.636169 0.381628
124.931778 89.636169 0.573292
126.872467 89.636169 0.400434
128.813156 89.636169 0.435794
130.753845 89.636169 0.353269
132.694534 89.636169 0.347127
134.635223 89.636169 0.592255
136.575912 89.636169 0.452346
138.516602 89.636169 0.258647
140.457291 89.636169 0.000000
-55.552399 87.695480 2.825734
-53.611710 87.695480 4.980110
-51.671021 87.695480 1.130241
-49.730328 87.695480 0.997607
-47.789639 87.695480 0.849288
-45.848949 87.695480 0.609217
-43.908257 87.695480 0.643807
-41.967567 87.695480 0.660049
-40.026878 87.695480 0.631730
-38.086189 87.695480 0.864521
-36.145500 87.695480 0.000000
-34.204807 87.695480 0.000000
-32.264118 87.695480 0.000000
-30.323429 87.695480 0.000000
-28.382738 87.695480 0.000000
-26.442047 87.695480 0.000000
-24.501358 87.695480 0.000000
-22.560669 87.695480 0.000000
-20.619980 87.695480 0.000000
-18.679287 87.695480 0.000000
-16.738598 87.695480 0.264859
-14.797909 87.695480 0.274877
-12.857216 87.695480 0.456060
-10.916527 87.695480 0.399521
-8.975838 87.695480 0.620807
-7.035149 87.695480 0.825256
-5.094460 87.695480 0.629883
-3.153767 87.695480 0.540686
-1.213078 87.695480 0.709652
0.727612 87.695480 0.390349
2.668304 87.695480 0.303998
4.608994 87.695480 0.346286
6.549683 87.695480 0.565342
8.490372 87.695480 0.493358
10.431061 87.695480 0.404589
12.371750 87.695480 0.392667
14.312439 87.695480 0.503099
16.253136 87.695480 0.541152
18.193825 87.695480 0.427169
20.134514 87.695480 0.733440
22.075203 87.695480 0.317513
24.015892 87.695480 0.297019
25.956581 87.695480 0.423274
27.897270 87.695480 0.468537
29.837967 87.695480 0.346510
31.778656 87.695480 0.385319
33.719345 87.695480 0.542314
35.660034 87.695480 0.484793
37.600723 87.695480 0.455477
39.541412 87.695480 0.420913
41.482101 87.695480 0.419424
43.422791 87.695480 0.259685
45.363480 87.695480 0.350327
47.304176 87.695480 0.388672
49.244865 87.695480 0.438492
51.185555 87.695480 0.432901
53.126244 87.695480 0.512312
55.066933 87.695480 0.827045
57.007622 87.695480 0.994643
58.948311 87.695480 0.000000
60.889008 87.695480 0.000000
62.829697 87.695480 0.000000
64.770386 87.695480 0.000000
66.711075 87.695480 0.000000
68.651764 87.695480 0.000000
70.592453 87.695480 0.330932
72.533142 87.695480 0.418078
74.473831 87.695480 0.589922
76.414520 87.695480 0.930731
78.355209 87.695480 0.628225
80.295898 87.695480 0.756315
82.236588 87.695480 0.798436
84.177277 87.695480 0.559974
86.117981 87.695480 0.549393
88.058670 87.695480 0.493197
89.999359 87.695480 0.508887
91.940048 87.695480 0.470737
93.880737 87.695480 0.421366
95.821426 87.695480 0.431723
97.762115 87.695480 0.461854
99.702805 87.695480 0.338777
101.643494 87.695480 0.491147
103.584183 87.695480 0.507649
105.524872 87.695480 0.661720
107.465561 87.695480 0.365110
109.406250 87.695480 0.337086
111.346939 87.695480 0.588064
113.287628 87.695480 0.510097
115.228333 87.695480 0.499236
117.169022 87.695480 0.442819
119.109711 87.695480 0.370225
121.050400 87.695480 0.344848
122.991089 87.695480 0.461960
124.931778 87.695480 0.383316
126.872467 87.695480 0.302805
128.813156 87.695480 0.424709
130.753845 87.695480 0.241202
132.694534 87.695480 0.314514
134.635223 87.695480 0.336564
136.575912 87.695480 0.429512
138.516602 87.695480 0.563677
140.457291 87.695480 0.000000
-55.552399 85.754791 3.062061
-53.611710 85.754791 1.778716
-51.671021 85.754791 1.246135
-49.730328 85.754791 1.326929
-47.789639 85.754791 0.772450
-45.848949 85.754791 0.492704
-43.908257 85.754791 0.472491
-41.967567 85.754791 0.588224
-40.026878 85.754791 0.595620
-38.086189 85.754791 0.775860
-36.145500 85.754791 0.000000
-34.204807 85.754791 0.000000
-32.264118 85.754791 0.000000
-30.323429 85.754791 0.000000
-28.382738 85.754791 0.000000
-26.442047 85.754791 0.000000
-24.501358 85.754791 0.000000
-22.560669 85.754791 0.000000
-20.619980 85.754791 0.000000
-18.679287 85.754791 0.000000
-16.738598 85.754791 0.236721
-14.797909 85.754791 0.249452
-12.857216 85.754791 0.411187
-10.916527 85.754791 0.314195
-8.975838 85.754791 0.372517
-7.035149 85.754791 0.481228
-5.094460 85.754791 0.532279
-3.153767 85.754791 0.506413
-1.213078 85.754791 0.573938
0.727612 85.754791 0.426204
2.668304 85.754791 0.308144
4.608994 85.754791 0.493343
6.549683 85.754791 0.413840
8.490372 85.754791 0.319548
10.431061 85.754791 0.314348
12.371750 85.754791 0.287578
14.312439 85.754791 0.435015
16.253136 85.754791 0.456251
18.193825 85.754791 0.402261
20.134514 85.754791 0.500120
22.075203 85.754791 0.274793
24.015892 85.754791 0.296702
25.956581 85.754791 0.396396
27.897270 85.754791 0.357956
29.837967 85.754791 0.186474
31.778656 85.754791 0.367356
33.719345 85.754791 0.425733
35.660034 85.754791 0.358609
37.600723 85.754791 0.443535
39.541412 85.754791 0.395049
41.482101 85.754791 0.314634
43.422791 85.754791 0.393934
45.363480 85.754791 0.374288
47.304176 85.754791 0.369388
49.244865 85.754791 0.289701
51.185555 85.754791 0.412805
53.126244 85.754791 0.378150
55.066933 85.754791 0.469461
57.007622 85.754791 0.790861
58.948311 85.754791 1.106823
60.889008 85.754791 0.000000
62.829697 85.754791 0.000000
64.770386 85.754791 0.000000
66.711075 85.754791 0.000000
68.651764 85.754791 0.000000
70.592453 85.754791 0.431017
72.533142 85.754791 0.264194
74.473831 85.754791 0.449391
76.414520 85.754791 0.619996
78.355209 85.754791 0.747063
80.295898 85.754791 0.569921
82.236588 85.754791 0.636192
84.177277 85.754791 0.519211
86.117981 85.754791 0.517999
88.058670 85.754791 0.493569
89.999359 85.754791 0.534283
91.940048 85.754791 0.613306
93.880737 85.754791 0.483331
95.821426 85.754791 0.737960
97.762115 85.754791 0.505388
99.702805 85.754791 0.473144
101.643494 85.754791 0.520980
103.584183 85.754791 0.449569
105.524872 85.754791 0.561187
107.465561 85.754791 0.381610
109.406250 85.754791 0.285206
111.346939 85.754791 0.560627
113.287628 85.754791 0.494696
115.228333 85.754791 0.523824
117.169022 85.754791 0.372321
119.109711 85.754791 0.468068