TITLE = "B00017"
VARIABLES = "position", "position(2)", "Vx", "Vy"
ZONE T="Frame 0", I=102, J=78
-55.552357 103.220658 0.000000 0.000000
-53.611669 103.220658 12.341061 7.802905
-51.670981 103.220658 10.743991 -0.970470
-49.730293 103.220658 9.616351 -0.263916
-47.789605 103.220658 9.764657 0.082058
-45.848917 103.220658 10.279228 0.527470
-43.908229 103.220658 10.612582 0.709125
-41.967541 103.220658 10.050449 0.655179
-40.026853 103.220658 9.600197 0.266607
-38.086165 103.220658 0.000000 0.000000
-36.145477 103.220658 0.000000 0.000000
-34.204789 103.220658 0.000000 0.000000
-32.264101 103.220658 0.000000 0.000000
-30.323413 103.220658 0.000000 0.000000
-28.382725 103.220658 0.000000 0.000000
-26.442037 103.220658 0.000000 0.000000
-24.501349 103.220658 0.000000 0.000000
-22.560661 103.220658 0.000000 0.000000
-20.619973 103.220658 0.000000 0.000000
-18.679285 103.220658 0.000000 0.000000
-16.738597 103.220658 0.000000 0.000000
-14.797909 103.220658 8.918436 0.256576
-12.857221 103.220658 9.095120 0.171122
-10.916533 103.220658 9.500502 -0.094365
-8.975845 103.220658 9.986671 -0.312425
-7.035157 103.220658 9.240889 0.710650
-5.094469 103.220658 10.467379 -0.891241
-3.153781 103.220658 10.083792 -1.364040
-1.213093 103.220658 0.000000 0.000000
0.727595 103.220658 8.983944 0.945373
2.668283 103.220658 10.426711 -0.699012
4.608971 103.220658 9.995410 -0.476970
6.549659 103.220658 9.912116 -0.757079
8.490347 103.220658 8.987164 -0.789571
10.431035 103.220658 9.471987 0.049792
12.371723 103.220658 8.946050 1.177555
14.312411 103.220658 7.513802 -0.318933
16.253099 103.220658 9.588793 2.806449
18.193787 103.220658 8.995835 1.844735
20.134475 103.220658 9.734302 0.098574
22.075163 103.220658 10.572948 -0.845793
24.015851 103.220658 9.759759 -1.139624
25.956539 103.220658 10.561154 -0.195077
27.897227 103.220658 9.373294 1.337404
29.837915 103.220658 10.069685 1.170240
31.778603 103.220658 11.749318 1.156922
33.719291 103.220658 10.229414 -1.506292
35.659979 103.220658 10.131841 0.456874
37.600667 103.220658 9.246799 0.541581
39.541355 103.220658 8.216289 0.376096
41.482043 103.220658 9.614195 0.979363
43.422731 103.220658 10.920145 0.161590
45.363419 103.220658 8.904919 -0.684685
47.304107 103.220658 0.000000 0.000000
49.244796 103.220658 10.502630 -0.707846
51.185484 103.220658 9.659632 -0.775383
53.126172 103.220658 9.922274 0.491892
55.066860 103.220658 10.291628 0.319479
57.007548 103.220658 0.000000 0.000000
58.948236 103.220658 0.000000 0.000000
60.888924 103.220658 0.000000 0.000000
62.829612 103.220658 0.000000 0.000000
64.770300 103.220658 0.000000 0.000000
66.710988 103.220658 0.000000 0.000000
68.651676 103.220658 0.000000 0.000000
70.592364 103.220658 0.000000 0.000000
72.533052 103.220658 10.086885 0.085821
74.473740 103.220658 9.467733 0.393159
76.414428 103.220658 10.338990 -0.186820
78.355116 103.220658 9.907248 -0.492205
80.295804 103.220658 9.223084 0.415106
82.236492 103.220658 9.182198 0.216670
84.177180 103.220658 9.412796 0.430551
86.117868 103.220658 10.136091 0.688152
88.058556 103.220658 10.389291 0.864403
89.999244 103.220658 10.321071 -0.684801
91.939932 103.220658 9.368589 0.389275
93.880620 103.220658 9.453494 0.574524
95.821308 103.220658 8.950337 -0.104651
97.761996 103.220658 11.343268 -0.435909
99.702684 103.220658 10.111914 0.461734
101.643372 103.220658 9.764158 -0.328196
103.584060 103.220658 10.064275 0.129145
105.524748 103.220658 10.121908 0.442828
107.465436 103.220658 10.332234 0.714642
109.406124 103.220658 9.515900 1.083582
111.346812 103.220658 9.971406 -0.321953
113.287500 103.220658 10.153779 -0.117633
115.228188 103.220658 9.603355 0.735327
117.168876 103.220658 10.370814 0.717150
119.109564 103.220658 10.280841 0.547952
121.050252 103.220658 9.267765 -0.284035
122.990940 103.220658 9.234137 1.111208
124.931628 103.220658 9.793715 0.734567
126.872316 103.220658 10.233566 -0.489887
128.813004 103.220658 9.777690 0.950473
130.753692 103.220658 9.477231 -0.055860
132.694380 103.220658 8.898682 0.603593
134.635068 103.220658 10.019970 0.163560
136.575756 103.220658 9.401845 -0.211378
138.516444 103.220658 9.521514 -0.409932
140.457132 103.220658 0.000000 0.000000
-55.552357 101.279970 0.000000 0.000000
-53.611669 101.279970 12.065855 12.398672
-51.670981 101.279970 10.383658 -0.526320
-49.730293 101.279970 9.270637 -0.364148
-47.789605 101.279970 9.408841 0.200619
-45.848917 101.279970 10.156946 0.111632
-43.908229 101.279970 11.267334 1.011808
-41.967541 101.279970 0.000000 0.000000
-40.026853 101.279970 9.311240 0.015945
-38.086165 101.279970 0.000000 0.000000
-36.145477 101.279970 0.000000 0.000000
-34.204789 101.279970 0.000000 0.000000
-32.264101 101.279970 0.000000 0.000000
-30.323413 101.279970 0.000000 0.000000
-28.382725 101.279970 0.000000 0.000000
-26.442037 101.279970 0.000000 0.000000
-24.501349 101.279970 0.000000 0.000000
-22.560661 101.279970 0.000000 0.000000
-20.619973 101.279970 0.000000 0.000000
-18.679285 101.279970 0.000000 0.000000
-16.738597 101.279970 0.000000 0.000000
-14.797909 101.279970 9.089883 -0.160801
-12.857221 101.279970 9.052232 0.590491
-10.916533 101.279970 9.195942 -0.279712
-8.975845 101.279970 9.485797 -0.185356
-7.035157 101.279970 10.085571 0.360790
-5.094469 101.279970 10.494737 -0.350475
-3.153781 101.279970 12.045755 1.219104
-1.213093 101.279970 9.552138 0.070822
0.727595 101.279970 10.073421 -0.391132
2.668283 101.279970 10.430292 -0.190039
4.608971 101.279970 0.000000 0.000000
6.549659 101.279970 9.825434 0.213534
8.490347 101.279970 9.007906 -0.165236
10.431035 101.279970 9.692076 -0.053586
12.371723 101.279970 10.486519 0.820642
14.312411 101.279970 9.978920 2.547376
16.253099 101.279970 9.629877 0.721311
18.193787 101.279970 9.746930 0.451988
20.134475 101.279970 9.547558 0.132276
22.075163 101.279970 9.641911 -0.494258
24.015851 101.279970 9.028159 -0.728975
25.956539 101.279970 9.248045 1.058505
27.897227 101.279970 8.804122 1.182892
29.837915 101.279970 9.866777 1.646897
31.778603 101.279970 9.238171 0.548196
33.719291 101.279970 0.000000 0.000000
35.659979 101.279970 9.568675 -2.315806
37.600667 101.279970 7.904533 -0.775247
39.541355 101.279970 8.825138 -0.480690
41.482043 101.279970 9.864366 -0.370562
43.422731 101.279970 9.995360 -0.258075
45.363419 101.279970 9.246620 -0.519581
47.304107 101.279970 0.000000 0.000000
49.244796 101.279970 10.262095 0.313702
51.185484 101.279970 9.950994 -0.509229
53.126172 101.279970 9.279002 0.364062
55.066860 101.279970 10.298819 0.397505
57.007548 101.279970 10.219629 -0.599981
58.948236 101.279970 0.000000 0.000000
60.888924 101.279970 0.000000 0.000000
62.829612 101.279970 0.000000 0.000000
64.770300 101.279970 0.000000 0.000000
66.710988 101.279970 0.000000 0.000000
68.651676 101.279970 0.000000 0.000000
70.592364 101.279970 9.964295 0.831073
72.533052 101.279970 9.410788 0.234923
74.473740 101.279970 9.528180 0.347599
76.414428 101.279970 9.880415 -0.205437
78.355116 101.279970 9.842119 -0.312166
80.295804 101.279970 9.406265 0.448538
82.236492 101.279970 9.034986 0.501195
84.177180 101.279970 10.090414 0.616544
86.117868 101.279970 9.130446 0.776674
88.058556 101.279970 10.327250 0.739285
89.999244 101.279970 10.178619 0.137496
91.939932 101.279970 9.522316 -0.239664
93.880620 101.279970 9.297538 -0.729943
95.821308 101.279970 9.728824 0.749981
97.761996 101.279970 9.539001 0.816350
99.702684 101.279970 10.117833 0.846680
101.643372 101.279970 10.050714 0.137271
103.584060 101.279970 9.831964 0.390861
105.524748 101.279970 9.886350 0.577320
107.465436 101.279970 9.904391 0.397993
109.406124 101.279970 9.463655 0.772574
111.346812 101.279970 9.608248 0.133701
113.287500 101.279970 9.952919 0.502445
115.228188 101.279970 9.913263 0.466017
117.168876 101.279970 10.098968 0.478550
119.109564 101.279970 10.218229 0.594429
121.050252 101.279970 9.492731 0.205042
122.990940 101.279970 9.409501 0.374185
124.931628 101.279970 10.036711 0.530836
126.872316 101.279970 10.377174 -0.131404
128.813004 101.279970 9.907054 0.468636
130.753692 101.279970 9.336617 -0.093452
132.694380 101.279970 9.836458 0.214247
134.635068 101.279970 10.003726 0.250103
136.575756 101.279970 9.563104 0.355971
138.516444 101.279970 9.633798 -0.024089
140.457132 101.279970 0.000000 0.000000
-55.552357 99.339282 11.433495 -12.634434
-53.611669 99.339282 10.313298 -1.783049
-51.670981 99.339282 6.739899 11.671655
-49.730293 99.339282 8.893981 -0.844169
-47.789605 99.339282 9.800239 0.576601
-45.848917 99.339282 9.908396 -0.270563
-43.908229 99.339282 10.539352 0.259159
-41.967541 99.339282 10.616336 1.677961
-40.026853 99.339282 10.681805 0.948189
-38.086165 99.339282 0.000000 0.000000
-36.145477 99.339282 0.000000 0.000000
-34.204789 99.339282 0.000000 0.000000
-32.264101 99.339282 0.000000 0.000000
-30.323413 99.339282 0.000000 0.000000
-28.382725 99.339282 0.000000 0.000000
-26.442037 99.339282 0.000000 0.000000
-24.501349 99.339282 0.000000 0.000000
-22.560661 99.339282 0.000000 0.000000
-20.619973 99.339282 0.000000 0.000000
-18.679285 99.339282 0.000000 0.000000
-16.738597 99.339282 0.000000 0.000000
-14.797909 99.339282 9.548532 0.539996
-12.857221 99.339282 9.313869 0.739302
-10.916533 99.339282 9.241891 -0.098585
-8.975845 99.339282 9.847687 0.159225
-7.035157 99.339282 10.248798 0.659314
-5.094469 99.339282 10.636481 -0.239158
-3.153781 99.339282 9.749697 -0.653416
-1.213093 99.339282 10.120891 0.439546
0.727595 99.339282 10.109200 -0.404156
2.668283 99.339282 10.213090 -0.413552
4.608971 99.339282 9.437167 2.132008
6.549659 99.339282 10.928146 -1.789104
8.490347 99.339282 9.505517 -0.113549
10.431035 99.339282 9.423401 0.222324
12.371723 99.339282 9.084519 0.654166
14.312411 99.339282 10.179359 1.051437
16.253099 99.339282 9.322508 0.472303
18.193787 99.339282 9.985219 0.242291
20.134475 99.339282 12.101797 -0.484486
22.075163 99.339282 0.000000 0.000000
24.015851 99.339282 8.777782 0.499618
25.956539 99.339282 9.164467 1.187614
27.897227 99.339282 8.876223 -0.601465
29.837915 99.339282 9.726038 1.716875
31.778603 99.339282 10.382874 -0.906671
33.719291 99.339282 9.012671 2.242449
35.659979 99.339282 9.637925 -1.882565
37.600667 99.339282 9.274215 0.435702
39.541355 99.339282 9.237473 -0.540392
41.482043 99.339282 0.000000 0.000000
43.422731 99.339282 9.171749 -0.081650
45.363419 99.339282 10.640097 0.391262
47.304107 99.339282 0.000000 0.000000
49.244796 99.339282 10.607461 0.084963
51.185484 99.339282 9.254779 0.617166
53.126172 99.339282 9.575994 -0.667090
55.066860 99.339282 9.299481 1.677930
57.007548 99.339282 8.910058 0.908038
58.948236 99.339282 0.000000 0.000000
60.888924 99.339282 0.000000 0.000000
62.829612 99.339282 0.000000 0.000000
64.770300 99.339282 0.000000 0.000000
66.710988 99.339282 0.000000 0.000000
68.651676 99.339282 0.000000 0.000000
70.592364 99.339282 10.534633 1.219901
72.533052 99.339282 9.668932 0.742144
74.473740 99.339282 8.494846 0.176583
76.414428 99.339282 9.563128 0.389892
78.355116 99.339282 9.515847 0.516389
80.295804 99.339282 10.217470 0.580515
82.236492 99.339282 8.428123 0.659609
84.177180 99.339282 9.323794 0.630113
86.117868 99.339282 9.769081 0.600104
88.058556 99.339282 9.825246 0.546262
89.999244 99.339282 9.095809 0.948279
91.939932 99.339282 9.444928 0.245534
93.880620 99.339282 9.574915 -0.540085
95.821308 99.339282 9.983050 0.125607
97.761996 99.339282 9.883222 0.619973
99.702684 99.339282 10.114190 -0.155313
101.643372 99.339282 10.092813 0.174311
103.584060 99.339282 9.411454 0.704018
105.524748 99.339282 9.360375 0.684395
107.465436 99.339282 9.486040 0.626645
109.406124 99.339282 9.800843 0.572028
111.346812 99.339282 9.525795 0.459391
113.287500 99.339282 9.964273 -0.115472
115.228188 99.339282 10.000157 0.030897
117.168876 99.339282 9.910635 0.685551
119.109564 99.339282 10.044610 0.588869
121.050252 99.339282 9.966497 0.322148
122.990940 99.339282 9.381468 0.405424
124.931628 99.339282 9.409588 0.130705
126.872316 99.339282 9.985123 0.261888
128.813004 99.339282 9.330226 0.131415
130.753692 99.339282 9.826378 -0.756362
132.694380 99.339282 9.934038 -0.226494
134.635068 99.339282 10.349064 0.091167
136.575756 99.339282 9.755961 0.276979
138.516444 99.339282 9.836511 0.446090
140.457132 99.339282 0.000000 0.000000
-55.552357 97.398594 5.012321 10.113845
-53.611669 97.398594 5.201015 9.387074
-51.670981 97.398594 11.002268 17.577967
-49.730293 97.398594 0.000000 0.000000
-47.789605 97.398594 10.448726 0.939659
-45.848917 97.398594 9.870701 -0.375600
-43.908229 97.398594 9.702810 -0.273649
-41.967541 97.398594 9.644964 0.195418
-40.026853 97.398594 10.389828 1.061548
-38.086165 97.398594 0.000000 0.000000
-36.145477 97.398594 0.000000 0.000000
-34.204789 97.398594 0.000000 0.000000
-32.264101 97.398594 0.000000 0.000000
-30.323413 97.398594 0.000000 0.000000
-28.382725 97.398594 0.000000 0.000000
-26.442037 97.398594 0.000000 0.000000
-24.501349 97.398594 0.000000 0.000000
-22.560661 97.398594 0.000000 0.000000
-20.619973 97.398594 0.000000 0.000000
-18.679285 97.398594 0.000000 0.000000
-16.738597 97.398594 0.000000 0.000000
-14.797909 97.398594 9.755098 0.352519
-12.857221 97.398594 9.233448 0.398233
-10.916533 97.398594 9.172730 0.277968
-8.975845 97.398594 9.380129 0.536681
-7.035157 97.398594 9.973722 0.695574
-5.094469 97.398594 10.446190 -0.001576
-3.153781 97.398594 10.130626 -0.620710
-1.213093 97.398594 10.116918 0.894407
0.727595 97.398594 9.291850 0.403346
2.668283 97.398594 9.930620 0.037170
4.608971 97.398594 9.064892 0.860858
6.549659 97.398594 9.592436 1.350209
8.490347 97.398594 10.627268 -0.030893
10.431035 97.398594 10.062366 0.852311
12.371723 97.398594 9.285976 0.418023
14.312411 97.398594 10.803009 0.165762
16.253099 97.398594 9.967574 -0.119551
18.193787 97.398594 10.545371 -0.889886
20.134475 97.398594 9.235876 1.482776
22.075163 97.398594 10.238372 0.845694
24.015851 97.398594 9.171472 0.247610
25.956539 97.398594 8.762165 1.763972
27.897227 97.398594 10.608267 -0.459584
29.837915 97.398594 9.952349 0.741443
31.778603 97.398594 8.534216 0.072248
33.719291 97.398594 0.000000 0.000000
35.659979 97.398594 0.000000 0.000000
37.600667 97.398594 10.054098 -0.046489
39.541355 97.398594 10.244081 0.843617
41.482043 97.398594 7.548911 0.035547
43.422731 97.398594 8.822914 -0.097956
45.363419 97.398594 11.911089 0.054672
47.304107 97.398594 12.285534 1.920562
49.244796 97.398594 10.416347 -0.350972
51.185484 97.398594 9.943875 0.572477
53.126172 97.398594 0.000000 0.000000
55.066860 97.398594 10.320318 2.230167
57.007548 97.398594 9.404791 2.211649
58.948236 97.398594 0.000000 0.000000
60.888924 97.398594 0.000000 0.000000
62.829612 97.398594 0.000000 0.000000
64.770300 97.398594 0.000000 0.000000
66.710988 97.398594 0.000000 0.000000
68.651676 97.398594 0.000000 0.000000
70.592364 97.398594 8.908315 -0.472943
72.533052 97.398594 9.307567 -0.265077
74.473740 97.398594 9.328934 -0.300685
76.414428 97.398594 9.494477 0.390588
78.355116 97.398594 9.938579 0.836334
80.295804 97.398594 9.199277 0.455890
82.236492 97.398594 9.246228 0.188962
84.177180 97.398594 9.137214 -0.225924
86.117868 97.398594 9.969530 -0.086561
88.058556 97.398594 10.457896 0.593622
89.999244 97.398594 9.796553 0.254574
91.939932 97.398594 9.901344 0.311839
93.880620 97.398594 9.232872 -0.081334
95.821308 97.398594 9.686813 0.358532
97.761996 97.398594 9.784791 -0.341249
99.702684 97.398594 8.858847 -0.303468
101.643372 97.398594 9.886763 0.362583
103.584060 97.398594 9.562299 0.425690
105.524748 97.398594 9.335686 0.579649
107.465436 97.398594 9.768079 0.473232
109.406124 97.398594 9.975314 -0.140516
111.346812 97.398594 9.628292 0.534075
113.287500 97.398594 10.006913 -0.381561
115.228188 97.398594 9.004099 0.118021
117.168876 97.398594 9.685080 0.543517
119.109564 97.398594 10.034977 0.474041
121.050252 97.398594 9.989987 0.190702
122.990940 97.398594 9.313742 0.702906
124.931628 97.398594 9.375413 0.433187
126.872316 97.398594 9.792740 0.646228
128.813004 97.398594 9.385367 0.384409
130.753692 97.398594 10.203334 0.055218
132.694380 97.398594 9.585252 0.369187
134.635068 97.398594 10.262253 0.622900
136.575756 97.398594 10.055996 -0.540039
138.516444 97.398594 9.164577 -0.062049
140.457132 97.398594 0.000000 0.000000
-55.552357 95.457906 5.073018 10.202394
-53.611669 95.457906 7.038884 -15.396344
-51.670981 95.457906 16.860435 0.930897
-49.730293 95.457906 0.000000 0.000000
-47.789605 95.457906 9.498583 0.721484
-45.848917 95.457906 10.180211 0.699066
-43.908229 95.457906 9.902476 -0.098577
-41.967541 95.457906 9.342330 -0.325410
-40.026853 95.457906 8.476089 2.540686
-38.086165 95.457906 0.000000 0.000000
-36.145477 95.457906 0.000000 0.000000
-34.204789 95.457906 0.000000 0.000000
-32.264101 95.457906 0.000000 0.000000
-30.323413 95.457906 0.000000 0.000000
-28.382725 95.457906 0.000000 0.000000
-26.442037 95.457906 0.000000 0.000000
-24.501349 95.457906 0.000000 0.000000
-22.560661 95.457906 0.000000 0.000000
-20.619973 95.457906 0.000000 0.000000
-18.679285 95.457906 0.000000 0.000000
-16.738597 95.457906 9.577827 0.747916
-14.797909 95.457906 9.356291 0.138995
-12.857221 95.457906 9.222980 0.339705
-10.916533 95.457906 9.117741 0.339425
-8.975845 95.457906 9.221995 0.571820
-7.035157 95.457906 9.793104 0.040384
-5.094469 95.457906 9.881754 0.339681
-3.153781 95.457906 9.821665 0.974529
-1.213093 95.457906 9.624634 0.323199
0.727595 95.457906 9.621453 0.056455
2.668283 95.457906 9.611239 -0.108828
4.608971 95.457906 10.701707 -0.388356
6.549659 95.457906 10.607973 -0.390040
8.490347 95.457906 9.765734 0.543511
10.431035 95.457906 0.000000 0.000000
12.371723 95.457906 10.018893 0.496200
14.312411 95.457906 10.988029 0.229366
16.253099 95.457906 10.191251 -0.610622
18.193787 95.457906 11.422868 0.819001
20.134475 95.457906 11.467108 0.572755
22.075163 95.457906 10.000318 0.313683
24.015851 95.457906 9.392736 -0.300840
25.956539 95.457906 10.169464 0.357994
27.897227 95.457906 10.770957 0.470593
29.837915 95.457906 9.550932 0.486932
31.778603 95.457906 8.905675 -0.181002
33.719291 95.457906 9.427197 0.311192
35.659979 95.457906 10.190813 0.251338
37.600667 95.457906 11.989439 1.744447
39.541355 95.457906 9.713122 1.837018
41.482043 95.457906 9.398267 0.253803
43.422731 95.457906 10.196464 0.268797
45.363419 95.457906 11.821054 0.333496
47.304107 95.457906 11.604297 0.832032
49.244796 95.457906 10.324609 -0.854052
51.185484 95.457906 10.345205 0.489323
53.126172 95.457906 0.000000 0.000000
55.066860 95.457906 9.472416 0.707421
57.007548 95.457906 10.087308 2.423459
58.948236 95.457906 0.000000 0.000000
60.888924 95.457906 0.000000 0.000000
62.829612 95.457906 0.000000 0.000000
64.770300 95.457906 0.000000 0.000000
66.710988 95.457906 0.000000 0.000000
68.651676 95.457906 0.000000 0.000000
70.592364 95.457906 9.428984 -0.575591
72.533052 95.457906 10.010275 -0.034889
74.473740 95.457906 9.680796 -0.460381
76.414428 95.457906 9.368608 -1.160385
78.355116 95.457906 10.324908 0.405494
80.295804 95.457906 9.786148 0.759758
82.236492 95.457906 9.118305 0.514154
84.177180 95.457906 9.905416 0.294892
86.117868 95.457906 9.572398 -0.299374
88.058556 95.457906 10.052608 0.702740
89.999244 95.457906 9.591507 -0.274013
91.939932 95.457906 10.058188 0.155646
93.880620 95.457906 9.606536 -0.184526
95.821308 95.457906 8.944491 -0.055932
97.761996 95.457906 9.184369 -0.366503
99.702684 95.457906 8.911816 0.405504
101.643372 95.457906 10.085784 0.304736
103.584060 95.457906 10.143257 0.153783
105.524748 95.457906 10.040936 -0.110415
107.465436 95.457906 10.139704 -0.029517
109.406124 95.457906 10.012304 -0.266271
111.346812 95.457906 9.633822 0.451230
113.287500 95.457906 9.769781 0.202565
115.228188 95.457906 9.602988 0.403645
117.168876 95.457906 9.766036 0.211019
119.109564 95.457906 10.072270 0.399285
121.050252 95.457906 9.532758 0.329299
122.990940 95.457906 9.402737 0.765196
124.931628 95.457906 10.039258 0.818898
126.872316 95.457906 9.859041 0.599882
128.813004 95.457906 9.508398 0.615210
130.753692 95.457906 10.240550 0.414065
132.694380 95.457906 9.554615 0.449466
134.635068 95.457906 9.359551 0.624125
136.575756 95.457906 9.244417 -0.023570
138.516444 95.457906 9.399436 -0.065021
140.457132 95.457906 0.000000 0.000000
-55.552357 93.517218 0.000000 0.000000
-53.611669 93.517218 10.056396 -0.611403
-51.670981 93.517218 0.000000 0.000000
-49.730293 93.517218 0.000000 0.000000
-47.789605 93.517218 8.825076 -0.384686
-45.848917 93.517218 9.784591 0.372779
-43.908229 93.517218 9.513330 -0.319697
-41.967541 93.517218 10.036032 -0.112369
-40.026853 93.517218 9.164698 2.349620
-38.086165 93.517218 0.000000 0.000000
-36.145477 93.517218 0.000000 0.000000
-34.204789 93.517218 0.000000 0.000000
-32.264101 93.517218 0.000000 0.000000
-30.323413 93.517218 0.000000 0.000000
-28.382725 93.517218 0.000000 0.000000
-26.442037 93.517218 0.000000 0.000000
-24.501349 93.517218 0.000000 0.000000
-22.560661 93.517218 0.000000 0.000000
-20.619973 93.517218 0.000000 0.000000
-18.679285 93.517218 0.000000 0.000000
-16.738597 93.517218 9.625676 0.047801
-14.797909 93.517218 8.813987 0.445997
-12.857221 93.517218 9.272123 -0.169300
-10.916533 93.517218 10.010469 1.627649
-8.975845 93.517218 8.856206 0.527725
-7.035157 93.517218 9.679944 0.023400
-5.094469 93.517218 9.117191 -0.024672
-3.153781 93.517218 9.749672 0.713095
-1.213093 93.517218 9.989605 -0.007429
0.727595 93.517218 10.111788 -0.844766
2.668283 93.517218 9.893407 -0.605769
4.608971 93.517218 10.515444 -0.252859
6.549659 93.517218 9.087308 -1.141079
8.490347 93.517218 10.605669 0.733130
10.431035 93.517218 0.000000 0.000000
12.371723 93.517218 11.319905 0.251866
14.312411 93.517218 0.000000 0.000000
16.253099 93.517218 10.473440 -0.512382
18.193787 93.517218 0.000000 0.000000
20.134475 93.517218 11.218411 2.412161
22.075163 93.517218 11.481568 1.154848
24.015851 93.517218 9.583565 -0.573135
25.956539 93.517218 10.358679 0.122138
27.897227 93.517218 10.279990 0.714784
29.837915 93.517218 9.176121 0.910094
31.778603 93.517218 10.226006 0.420307
33.719291 93.517218 10.205776 0.600143
35.659979 93.517218 10.363288 0.323418
37.600667 93.517218 10.868305 0.446647
39.541355 93.517218 10.055604 1.263302
41.482043 93.517218 8.933347 1.855214
43.422731 93.517218 10.323644 0.210312
45.363419 93.517218 10.445987 -0.498061
47.304107 93.517218 10.024258 0.014243
49.244796 93.517218 9.272075 -0.100764
51.185484 93.517218 9.939073 0.249498
53.126172 93.517218 11.079852 0.210767
55.066860 93.517218 9.845920 1.066783
57.007548 93.517218 7.065076 -0.737613
58.948236 93.517218 0.000000 0.000000
60.888924 93.517218 0.000000 0.000000
62.829612 93.517218 0.000000 0.000000
64.770300 93.517218 0.000000 0.000000
66.710988 93.517218 0.000000 0.000000
68.651676 93.517218 0.000000 0.000000
70.592364 93.517218 9.313017 -0.900701
72.533052 93.517218 9.861547 0.063724
74.473740 93.517218 10.204397 0.281713
76.414428 93.517218 9.434071 0.126603
78.355116 93.517218 8.912282 -0.220923
80.295804 93.517218 9.284576 1.350795
82.236492 93.517218 9.154010 0.183558
84.177180 93.517218 9.297393 0.672774
86.117868 93.517218 9.691043 -0.254831
88.058556 93.517218 9.849828 0.239118
89.999244 93.517218 9.330146 0.368013
91.939932 93.517218 9.331161 0.140848
93.880620 93.517218 9.828454 0.400997
95.821308 93.517218 9.049231 0.375979
97.761996 93.517218 9.664280 0.058556
99.702684 93.517218 10.043907 0.381655
101.643372 93.517218 9.536181 0.424521
103.584060 93.517218 9.785763 0.527028
105.524748 93.517218 9.997631 -0.340436
107.465436 93.517218 10.276698 -0.056663
109.406124 93.517218 10.272809 0.273996
111.346812 93.517218 9.948064 0.037130
113.287500 93.517218 9.342688 0.551555
115.228188 93.517218 9.652843 0.262555
117.168876 93.517218 9.834234 0.481335
119.109564 93.517218 9.947639 0.498668
121.050252 93.517218 9.672800 0.207948
122.990940 93.517218 9.688633 0.187412
124.931628 93.517218 9.999352 0.317650
126.872316 93.517218 9.588123 0.680572
128.813004 93.517218 9.703067 0.483024
130.753692 93.517218 9.802700 0.046979
132.694380 93.517218 9.594759 -0.512117
134.635068 93.517218 9.733379 0.544883
136.575756 93.517218 9.850762 0.751218
138.516444 93.517218 9.292887 0.340646
140.457132 93.517218 0.000000 0.000000
-55.552357 91.576530 11.334147 -0.493516
-53.611669 91.576530 9.553570 -0.881310
-51.670981 91.576530 10.232200 -0.944548
-49.730293 91.576530 8.027469 0.036527
-47.789605 91.576530 8.809798 -0.200963
-45.848917 91.576530 8.925194 0.669077
-43.908229 91.576530 9.412256 0.598357
-41.967541 91.576530 9.396358 0.803934
-40.026853 91.576530 9.757051 0.634854
-38.086165 91.576530 0.000000 0.000000
-36.145477 91.576530 0.000000 0.000000
-34.204789 91.576530 0.000000 0.000000
-32.264101 91.576530 0.000000 0.000000
-30.323413 91.576530 0.000000 0.000000
-28.382725 91.576530 0.000000 0.000000
-26.442037 91.576530 0.000000 0.000000
-24.501349 91.576530 0.000000 0.000000
-22.560661 91.576530 0.000000 0.000000
-20.619973 91.576530 0.000000 0.000000
-18.679285 91.576530 0.000000 0.000000
-16.738597 91.576530 9.388267 0.096025
-14.797909 91.576530 9.131973 -0.013483
-12.857221 91.576530 9.490952 -0.587818
-10.916533 91.576530 9.898827 1.543310
-8.975845 91.576530 8.942842 0.485146
-7.035157 91.576530 9.787352 0.447162
-5.094469 91.576530 9.572158 -0.120629
-3.153781 91.576530 9.983248 0.648860
-1.213093 91.576530 10.401127 0.749859
0.727595 91.576530 10.495687 -0.193450
2.668283 91.576530 10.037386 -0.929249
4.608971 91.576530 9.912881 -0.161405
6.549659 91.576530 9.274594 -0.031267
8.490347 91.576530 8.657108 0.036066
10.431035 91.576530 7.669551 -0.056346
12.371723 91.576530 10.975527 0.292990
14.312411 91.576530 9.432596 -0.283188
16.253099 91.576530 10.201360 -0.487978
18.193787 91.576530 10.196220 0.900528
20.134475 91.576530 9.804622 -0.250246
22.075163 91.576530 10.679867 0.581041
24.015851 91.576530 9.179498 0.484756
25.956539 91.576530 9.546095 0.540889
27.897227 91.576530 9.029116 0.383091
29.837915 91.576530 8.700527 0.864814
31.778603 91.576530 10.394381 0.178069
33.719291 91.576530 9.904484 0.493342
35.659979 91.576530 9.227702 -0.902745
37.600667 91.576530 9.346510 0.311044
39.541355 91.576530 9.208873 1.164745
41.482043 91.576530 9.121948 2.050643
43.422731 91.576530 8.862640 -0.186203
45.363419 91.576530 9.643745 -0.473409
47.304107 91.576530 9.928378 0.191977
49.244796 91.576530 10.146826 0.134831
51.185484 91.576530 10.218239 0.400161
53.126172 91.576530 10.481926 -0.162291
55.066860 91.576530 8.895403 0.445168
57.007548 91.576530 8.881309 0.620856
58.948236 91.576530 0.000000 0.000000
60.888924 91.576530 0.000000 0.000000
62.829612 91.576530 0.000000 0.000000
64.770300 91.576530 0.000000 0.000000
66.710988 91.576530 0.000000 0.000000
68.651676 91.576530 0.000000 0.000000
70.592364 91.576530 9.211411 -0.194712
72.533052 91.576530 8.222091 0.153341
74.473740 91.576530 9.887917 0.283071
76.414428 91.576530 9.052821 0.195338
78.355116 91.576530 9.814308 1.169114
80.295804 91.576530 9.875143 0.279621
82.236492 91.576530 10.199197 -0.912890
84.177180 91.576530 8.851980 -0.639708
86.117868 91.576530 9.837020 -0.827669
88.058556 91.576530 10.237721 0.056447
89.999244 91.576530 9.729644 0.637641
91.939932 91.576530 9.598735 -0.304867
93.880620 91.576530 9.433641 0.315438
95.821308 91.576530 10.002616 0.795225
97.761996 91.576530 10.350545 -0.249996
99.702684 91.576530 10.168295 0.094267
101.643372 91.576530 9.799254 0.194203
103.584060 91.576530 10.200634 -0.083009
105.524748 91.576530 9.808836 -0.121828
107.465436 91.576530 10.169667 0.430264
109.406124 91.576530 10.282189 0.702277
111.346812 91.576530 9.821797 0.291741
113.287500 91.576530 9.207766 0.618672
115.228188 91.576530 9.352920 0.378729
117.168876 91.576530 9.612446 0.583683
119.109564 91.576530 9.737158 0.368050
121.050252 91.576530 10.040279 0.024925
122.990940 91.576530 9.466582 0.000105
124.931628 91.576530 9.377695 0.322815
126.872316 91.576530 9.533161 0.368476
128.813004 91.576530 9.655221 0.292944
130.753692 91.576530 9.877299 0.083625
132.694380 91.576530 9.835299 0.119096
134.635068 91.576530 9.730431 0.711361
136.575756 91.576530 9.512297 0.681149
138.516444 91.576530 9.170050 0.649820
140.457132 91.576530 0.000000 0.000000
-55.552357 89.635842 8.926490 0.945725
-53.611669 89.635842 8.941530 -0.994346
-51.670981 89.635842 9.868212 -1.327336
-49.730293 89.635842 9.328724 0.025934
-47.789605 89.635842 10.806409 -0.408468
-45.848917 89.635842 10.111051 0.654814
-43.908229 89.635842 10.392175 0.944899
-41.967541 89.635842 9.719402 0.258029
-40.026853 89.635842 9.615709 0.572551
-38.086165 89.635842 0.000000 0.000000
-36.145477 89.635842 0.000000 0.000000
-34.204789 89.635842 0.000000 0.000000
-32.264101 89.635842 0.000000 0.000000
-30.323413 89.635842 0.000000 0.000000
-28.382725 89.635842 0.000000 0.000000
-26.442037 89.635842 0.000000 0.000000
-24.501349 89.635842 0.000000 0.000000
-22.560661 89.635842 0.000000 0.000000
-20.619973 89.635842 0.000000 0.000000
-18.679285 89.635842 0.000000 0.000000
-16.738597 89.635842 9.184394 0.252142
-14.797909 89.635842 9.362562 -0.327979
-12.857221 89.635842 9.637493 0.731737
-10.916533 89.635842 9.044502 0.036274
-8.975845 89.635842 9.375178 0.478530
-7.035157 89.635842 10.073008 0.578276
-5.094469 89.635842 9.579419 -0.133784
-3.153781 89.635842 9.671199 -0.003563
-1.213093 89.635842 10.419563 0.090344
0.727595 89.635842 10.197720 0.588924
2.668283 89.635842 9.537483 0.137419
4.608971 89.635842 9.141017 -0.052357
6.549659 89.635842 8.921206 -0.374016
8.490347 89.635842 9.155034 0.514347
10.431035 89.635842 9.694645 0.825007
12.371723 89.635842 9.135724 0.580949
14.312411 89.635842 9.267941 0.211040
16.253099 89.635842 9.288867 0.113240
18.193787 89.635842 9.926662 0.509940
20.134475 89.635842 9.928258 0.399584
22.075163 89.635842 9.542378 0.335883
24.015851 89.635842 9.114909 1.125038
25.956539 89.635842 9.452643 0.803995
27.897227 89.635842 8.718168 -0.051965
29.837915 89.635842 9.894265 -0.353486
31.778603 89.635842 9.674244 0.843244
33.719291 89.635842 9.108518 0.783079
35.659979 89.635842 9.273570 0.310167
37.600667 89.635842 9.381477 0.816728